LAMMPS (22 Jul 2025 - Development - )
Reading data file ...
  orthogonal box = (0 0 0) to (36.15 36.15 90.375)
  1 by 1 by 1 MPI processor grid
  reading atoms ...
  7800 atoms
  reading velocities ...
  7800 velocities
  read_data CPU = 0.026 seconds
WARNING: fix lambda/la/csp/apip requires a `pair la/csp/apip` to apply forces (../fix_lambda_la_csp_apip.cpp:196)
Neighbor list info ...
  update: every = 1 steps, delay = 0 steps, check = yes
  max neighbors/atom: 2000, page size: 100000
  master list distance cutoff = 10
  ghost atom cutoff = 10
  binsize = 5, bins = 8 8 19
  3 neighbor lists, perpetual/occasional/extra = 3 0 0
  (1) pair eam/fs, perpetual, half/full from (3)
      attributes: half, newton on
      pair build: halffull/newton
      stencil: none
      bin: none
  (2) pair zero, perpetual, half/full from (3)
      attributes: half, newton on, cut 10
      pair build: halffull/newton
      stencil: none
      bin: none
  (3) fix lambda/la/csp/apip, perpetual
      attributes: full, newton on, cut 10
      pair build: full/bin/atomonly
      stencil: full/bin/3d
      bin: standard
Setting up Verlet run ...
  Unit style    : metal
  Current step  : 0
  Time step     : 0.001
Per MPI rank memory allocation (min/avg/max) = 33.11 | 33.11 | 33.11 Mbytes
   Step          Temp          TotEng     c_lambda_types[1] c_lambda_types[2] c_lambda_types[3] c_lambda_types[4] c_lambda_types[5]     Fnorm           Fmax      f_lambda_cspavg
         0   300           -28067.939      6200           400            1200           9144.7876      7930.576       77.911905      1.7133729      0            
         1   300.28708     -28067.939      6200           400            1200           9144.1497      7929.761       77.869584      1.7444026      0            
         2   300.81033     -28067.94       6200           400            1200           9143.7444      7928.9935      77.767566      1.7701596      0            
         3   301.56504     -28067.94       6200           400            1200           9143.5948      7928.2971      77.606605      1.7904687      0            
         4   302.54384     -28067.941      6200           400            1200           9143.7373      7927.7089      77.387932      1.8051893      0            
         5   303.73683     -28067.942      6200           400            1200           9144.2205      7927.2788      77.113258      1.8142175      0            
         6   305.13164     -28067.942      6200           400            1200           9145.1052      7927.0691      76.784763      1.8174882      0            
         7   306.71359     -28067.944      6200           400            1200           9146.4636      7927.1538      76.40509       1.814976       0            
         8   308.4658      -28067.945      6200           400            1200           9148.3785      7927.6177      75.977337      1.8066954      0            
         9   310.36941     -28067.946      6200           400            1200           9150.9422      7928.5558      75.505043      1.7927011      0            
        10   312.40374     -28067.947      6200           400            1200           9154.2559      7930.0717      74.992172      1.7774997      0            
        11   314.54652     -28067.949      6200           400            1200           9158.428       7932.277       74.443095      1.7773446      0            
        12   316.77414     -28067.95       6200           400            1200           9163.5735      7935.2897      73.86257       1.7714697      0            
        13   319.06185     -28067.952      6200           400            1200           9169.8122      7939.233       73.255715      1.7599817      0            
        14   321.38405     -28067.954      6200           400            1200           9177.2674      7944.2341      72.627976      1.7430326      0            
        15   323.71452     -28067.955      6200           400            1200           9186.0648      7950.4223      71.985096      1.7208163      0            
        16   326.02672     -28067.957      6200           400            1200           9196.3308      7957.9281      71.333069      1.6935634      0            
        17   328.29403     -28067.959      6200           400            1200           9208.191       7966.8813      70.6781        1.6615364      0            
        18   330.49004     -28067.96       6200           400            1200           9221.7688      7977.4096      70.026549      1.6454288      0            
        19   332.58876     -28067.962      6200           400            1200           9237.1839      7989.6372      69.384872      1.6350039      0            
        20   334.56495     -28067.963      6200           400            1200           9254.5511      8003.6834      68.759561      1.6191856      0            
        21   336.3943      -28067.965      6200           400            1200           9273.9784      8019.6609      68.157069      1.598099       0            
        22   338.05372     -28067.966      6200           400            1200           9295.5661      8037.6746      67.583736      1.5813505      0            
        23   339.52149     -28067.967      6200           400            1200           9319.4052      8057.8206      67.045709      1.5625064      0            
        24   340.77754     -28067.968      6200           400            1200           9345.5765      8080.1842      66.548856      1.5401434      0            
        25   341.8036      -28067.969      6200           400            1200           9374.1491      8104.8397      66.098677      1.5144146      0            
        26   342.58335     -28067.97       6200           400            1200           9405.1799      8131.8487      65.700224      1.525749       0            
        27   343.10263     -28067.971      6200           400            1200           9438.7122      8161.2595      65.358012      1.5638395      0            
        28   343.34951     -28067.971      6200           400            1200           9474.7749      8193.1059      65.075941      1.5987161      0            
        29   343.3144      -28067.972      6200           400            1200           9513.3824      8227.4072      64.85723       1.6300949      0            
        30   342.99018     -28067.972      6200           400            1200           9554.5333      8264.1671      64.70435       1.6577068      0            
        31   342.37223     -28067.972      6200           400            1200           9598.2107      8303.3733      64.618984      1.6813015      0            
        32   341.45845     -28067.972      6200           400            1200           9644.3813      8344.9976      64.601992      1.7006501      0            
        33   340.24933     -28067.972      6200           400            1200           9692.9957      8388.9954      64.653401      1.7155482      0            
        34   338.74788     -28067.972      6200           400            1200           9743.9884      8435.3059      64.772404      1.7258183      0            
        35   336.95965     -28067.971      6200           400            1200           9797.2776      8483.8521      64.957386      1.731312       0            
        36   334.89264     -28067.97       6200           400            1200           9852.7659      8534.5415      65.205957      1.731911       0            
        37   332.55727     -28067.97       6200           400            1200           9910.3403      8587.2657      65.515008      1.7275287      0            
        38   329.96625     -28067.969      6200           400            1200           9969.8734      8641.9019      65.880772      1.7181104      0            
        39   327.13445     -28067.968      6200           400            1200           10031.223      8698.3131      66.298903      1.7036336      0            
        40   324.07883     -28067.966      6200           400            1200           10094.235      8756.3487      66.764555      1.6841087      0            
        41   320.81821     -28067.965      6200           400            1200           10158.741      8815.846       67.272468      1.6595787      0            
        42   317.37316     -28067.964      6200           400            1200           10224.563      8876.6308      67.817057      1.6301173      0            
        43   313.7658      -28067.962      6200           400            1200           10291.511      8938.5187      68.392494      1.5958272      0            
        44   310.01956     -28067.961      6200           400            1200           10359.389      9001.3161      68.992798      1.6389433      0            
        45   306.15904     -28067.959      6200           400            1200           10427.989      9064.8219      69.611909      1.6813626      0            
        46   302.20972     -28067.957      6200           400            1200           10497.1        9128.8284      70.243766      1.7195768      0            
        47   298.19779     -28067.956      6200           400            1200           10566.505      9193.1231      70.882372      1.7534505      0            
        48   294.14987     -28067.954      6200           400            1200           10635.983      9257.4898      71.52186       1.7828631      0            
        49   290.0928      -28067.952      6200           400            1200           10705.311      9321.7103      72.156543      1.8077107      0            
        50   286.05339     -28067.951      6200           400            1200           10774.267      9385.5658      72.780967      1.8279074      0            
        51   282.05818     -28067.949      6200           400            1200           10842.628      9448.8384      73.38995       1.8433865      0            
        52   278.13323     -28067.947      6200           400            1200           10910.174      9511.3126      73.978625      1.8541021      0            
        53   274.30387     -28067.946      6200           400            1200           10976.688      9572.7764      74.542462      1.8600293      0            
        54   270.59448     -28067.945      6200           400            1200           11041.961      9633.0235      75.077301      1.9032263      0            
        55   267.02831     -28067.943      6200           400            1200           11105.786      9691.8537      75.579371      1.9473542      0            
        56   263.6273      -28067.942      6200           400            1200           11167.968      9749.0748      76.045302      1.9864721      0            
        57   260.41184     -28067.941      6200           400            1200           11228.32       9804.5037      76.472142      2.0203972      0            
        58   257.4007      -28067.94       6200           400            1200           11286.663      9857.9673      76.857361      2.0489726      0            
        59   254.61085     -28067.939      6200           400            1200           11342.832      9909.3038      77.198854      2.0720696      0            
        60   252.05734     -28067.938      6200           400            1200           11396.672      9958.3634      77.494942      2.0895908      0            
        61   249.75322     -28067.937      6200           400            1200           11448.042      10005.009      77.744364      2.1014716      0            
        62   247.70947     -28067.937      6200           400            1200           11496.816      10049.119      77.946276      2.1076819      0            
        63   245.93496     -28067.936      6200           400            1200           11542.879      10090.582      78.100231      2.1082265      0            
        64   244.4364      -28067.936      6200           400            1200           11586.133      10129.306      78.206174      2.1089755      0            
        65   243.21837     -28067.936      6200           400            1200           11626.496      10165.21       78.264417      2.156281       0            
        66   242.28332     -28067.936      6200           400            1200           11663.899      10198.232      78.275628      2.1973459      0            
        67   241.63161     -28067.936      6200           400            1200           11698.29       10228.322      78.240803      2.2318924      0            
        68   241.26157     -28067.936      6200           400            1200           11729.631      10255.448      78.161247      2.2596916      0            
        69   241.16959     -28067.937      6200           400            1200           11757.902      10279.591      78.038548      2.2805677      0            
        70   241.35018     -28067.937      6200           400            1200           11783.096      10300.749      77.874554      2.294401       0            
        71   241.79612     -28067.938      6200           400            1200           11805.22       10318.934      77.671341      2.3011306      0            
        72   242.49853     -28067.938      6200           400            1200           11824.298      10334.172      77.431193      2.3007549      0            
        73   243.44703     -28067.939      6200           400            1200           11840.367      10346.503      77.156573      2.2933316      0            
        74   244.62986     -28067.94       6200           400            1200           11853.476      10355.981      76.850093      2.2789758      0            
        75   246.03404     -28067.941      6200           400            1200           11863.689      10362.671      76.514493      2.2578575      0            
        76   247.64548     -28067.941      6200           400            1200           11871.079      10366.65       76.152613      2.2301976      0            
        77   249.44914     -28067.942      6200           400            1200           11875.733      10368.007      75.76737       2.1962637      0            
        78   251.4292      -28067.943      6200           400            1200           11877.746      10366.841      75.361736      2.1563639      0            
        79   253.56918     -28067.944      6200           400            1200           11877.224      10363.26       74.938711      2.1108415      0            
        80   255.85207     -28067.945      6200           400            1200           11874.281      10357.379      74.501313      2.0600683      0            
        81   258.26051     -28067.947      6200           400            1200           11869.038      10349.323      74.052549      2.0044383      0            
        82   260.77687     -28067.948      6200           400            1200           11861.624      10339.221      73.595403      1.944361       0            
        83   263.38343     -28067.949      6200           400            1200           11852.172      10327.208      73.132822      1.8802555      0            
        84   266.06247     -28067.95       6200           400            1200           11840.821      10313.426      72.667696      1.812544       0            
        85   268.79638     -28067.951      6200           400            1200           11827.712      10298.017      72.20285       1.741647       0            
        86   271.56779     -28067.952      6200           400            1200           11812.991      10281.127      71.741033      1.7166921      0            
        87   274.35965     -28067.953      6200           400            1200           11796.805      10262.904      71.284902      1.7580568      0            
        88   277.15535     -28067.954      6200           400            1200           11779.3        10243.496      70.837019      1.7947076      0            
        89   279.93874     -28067.955      6200           400            1200           11760.625      10223.051      70.39984       1.8264954      0            
        90   282.69431     -28067.955      6200           400            1200           11740.927      10201.717      69.975707      1.8533029      0            
        91   285.40716     -28067.956      6200           400            1200           11720.35       10179.639      69.56684       1.8750471      0            
        92   288.06314     -28067.957      6200           400            1200           11699.037      10156.959      69.175334      1.8916786      0            
        93   290.64885     -28067.958      6200           400            1200           11677.128      10133.816      68.803149      1.903183       0            
        94   293.15172     -28067.958      6200           400            1200           11654.757      10110.346      68.452103      1.9095795      0            
        95   295.56008     -28067.959      6200           400            1200           11632.055      10086.677      68.12387       1.9109203      0            
        96   297.86314     -28067.96       6200           400            1200           11609.148      10062.935      67.819968      1.9072886      0            
        97   300.05107     -28067.96       6200           400            1200           11586.156      10039.239      67.541756      1.8987967      0            
        98   302.11501     -28067.961      6200           400            1200           11563.192      10015.701      67.290425      1.8855831      0            
        99   304.04711     -28067.961      6200           400            1200           11540.363      9992.4256      67.066991      1.8678102      0            
       100   305.84054     -28067.961      6200           400            1200           11517.768      9969.5113      66.87229       1.8456603      0            
Loop time of 4.77534 on 1 procs for 100 steps with 7800 atoms

Performance: 1.809 ns/day, 13.265 hours/ns, 20.941 timesteps/s, 163.339 katom-step/s
99.9% CPU use with 1 MPI tasks x no OpenMP threads

MPI task timing breakdown:
Section |  min time  |  avg time  |  max time  |%varavg| %total
---------------------------------------------------------------
Pair    | 1.0855     | 1.0855     | 1.0855     |   0.0 | 22.73
Neigh   | 0          | 0          | 0          |   0.0 |  0.00
Comm    | 0.014107   | 0.014107   | 0.014107   |   0.0 |  0.30
Output  | 0.033937   | 0.033937   | 0.033937   |   0.0 |  0.71
Modify  | 3.6384     | 3.6384     | 3.6384     |   0.0 | 76.19
Other   |            | 0.00344    |            |       |  0.07

Nlocal:           7800 ave        7800 max        7800 min
Histogram: 1 0 0 0 0 0 0 0 0 0
Nghost:          16224 ave       16224 max       16224 min
Histogram: 1 0 0 0 0 0 0 0 0 0
Neighs:    1.33708e+06 ave 1.33708e+06 max 1.33708e+06 min
Histogram: 1 0 0 0 0 0 0 0 0 0
FullNghs:  2.67415e+06 ave 2.67415e+06 max 2.67415e+06 min
Histogram: 1 0 0 0 0 0 0 0 0 0

Total # of neighbors = 2674154
Ave neighs/atom = 342.84026
Neighbor list builds = 0
Dangerous builds = 0
Total wall time: 0:00:04
