LAMMPS (10 Dec 2025 - Development - 1b56d059aa)
OMP_NUM_THREADS environment is not set. Defaulting to 1 thread.
  using 1 OpenMP thread(s) per MPI task
Reading data file ...
  orthogonal box = (0 0 -1.1656272) to (36.15 36.15 362.81506)
  1 by 1 by 4 MPI processor grid
  reading atoms ...
  40200 atoms
  reading velocities ...
  40200 velocities
  read_data CPU = 0.130 seconds
39199 atoms in group group_descriptor
ACE version: 2023.11.25
Recursive evaluator is used by ACE
Loading ../../../potentials/Cu-PBE-core-rep.ace
Total number of basis functions
	Cu: 16 (r=1) 726 (r>1)
Mapping LAMMPS atom type #1(Cu) -> ACE species type #0
atomic load lambda:
	fast potential: extract eam/apip:time_per_atom
	precise potential: extract pace/apip:time_per_atom
	lambda_input: const 0
	lambda: const 0
Neighbor list info ...
  update: every = 1 steps, delay = 0 steps, check = yes
  max neighbors/atom: 2000, page size: 100000
  master list distance cutoff = 10
  ghost atom cutoff = 10
  binsize = 5, bins = 8 8 73
  4 neighbor lists, perpetual/occasional/extra = 4 0 0
  (1) pair eam/fs/apip, perpetual
      attributes: full, newton on
      pair build: full/bin/atomonly
      stencil: full/bin/3d
      bin: standard
  (2) pair pace/apip, perpetual, trim from (4)
      attributes: full, newton on, cut 9.4
      pair build: trim
      stencil: none
      bin: none
  (3) pair zero, perpetual, half/full from (1)
      attributes: half, newton on, cut 10
      pair build: halffull/newton
      stencil: none
      bin: none
  (4) fix lambda/la/csp/apip, perpetual
      attributes: full, newton on, cut 10
      pair build: full/bin/atomonly
      stencil: full/bin/3d
      bin: standard
Setting up Verlet run ...
  Unit style    : metal
  Current step  : 0
  Time step     : 0.001
  eam/apip      : compute potential energies for local-averaging forces
  pace/apip     : compute potential energies for local-averaging forces
Per MPI rank memory allocation (min/avg/max) = 59.11 | 60 | 60.7 Mbytes
   Step     f_weight_atom[1] f_weight_atom[2]     S/CPU     
         0   0              0              0            
        10   2.2057072e-06  0.00020162651  2.4634977    
        20   2.6138257e-06  0.00023704608  1.8179378    
        30   2.7678013e-06  0.00025715391  1.6653782    
        40   2.7823792e-06  0.00025773003  1.6500624    
        50   2.8980241e-06  0.0002603648   1.6504913    
        60   2.8301659e-06  0.00026034622  1.7957123    
        70   3.0753695e-06  0.00027483918  2.9431409    
        80   2.8951127e-06  0.00024778093  2.0566768    
        90   2.9725583e-06  0.00025099332  1.8133397    
       100   3.0140936e-06  0.00026415625  1.672784     
Loop time of 53.0054 on 4 procs for 100 steps with 40200 atoms

Performance: 0.163 ns/day, 147.237 hours/ns, 1.887 timesteps/s, 75.841 katom-step/s
99.8% CPU use with 4 MPI tasks x 1 OpenMP threads

MPI task timing breakdown:
Section |  min time  |  avg time  |  max time  |%varavg| %total
---------------------------------------------------------------
Pair    | 4.2619     | 7.8736     | 14.387     | 138.8 | 14.85
Neigh   | 0.56152    | 1.5792     | 3.0216     |  84.2 |  2.98
Comm    | 3.6085     | 11.341     | 18.44      | 192.4 | 21.40
Output  | 0.00038867 | 0.038924   | 0.15257    |  33.3 |  0.07
Modify  | 19.576     | 31.828     | 40.654     | 159.6 | 60.05
Other   |            | 0.3448     |            |       |  0.65

Nlocal:          10050 ave       21594 max        1490 min
Histogram: 2 0 0 0 0 0 0 1 0 1
Nghost:        17633.5 ave       32703 max        5293 min
Histogram: 2 0 0 0 0 0 0 1 0 1
Neighs:    1.77282e+06 ave 3.85323e+06 max      226631 min
Histogram: 2 0 0 0 0 0 0 1 0 1
FullNghs:  3.54563e+06 ave 7.63244e+06 max      488774 min
Histogram: 2 0 0 0 0 0 0 1 0 1

Total # of neighbors = 14182536
Ave neighs/atom = 352.7994
Neighbor list builds = 10
Dangerous builds = 0
Total wall time: 0:00:53
