LAMMPS (22 Jul 2025 - Development - )
Reading data file ...
  orthogonal box = (0 0 0) to (36.15 36.15 90.375)
  1 by 1 by 1 MPI processor grid
  reading atoms ...
  7800 atoms
  reading velocities ...
  7800 velocities
  read_data CPU = 0.026 seconds
ACE version: 2023.11.25
Recursive evaluator is used
Loading ../../../potentials/Cu-PBE-core-rep.ace
Total number of basis functions
	Cu: 16 (r=1) 726 (r>1)
Mapping LAMMPS atom type #1(Cu) -> ACE species type #0
WARNING: fix lambda/la/csp/apip requires a `pair la/csp/apip` to apply forces (../fix_lambda_la_csp_apip.cpp:196)
Neighbor list info ...
  update: every = 1 steps, delay = 0 steps, check = yes
  max neighbors/atom: 2000, page size: 100000
  master list distance cutoff = 10
  ghost atom cutoff = 10
  binsize = 5, bins = 8 8 19
  3 neighbor lists, perpetual/occasional/extra = 3 0 0
  (1) pair pace, perpetual
      attributes: full, newton on
      pair build: full/bin/atomonly
      stencil: full/bin/3d
      bin: standard
  (2) pair zero, perpetual, half/full from (1)
      attributes: half, newton on, cut 10
      pair build: halffull/newton
      stencil: none
      bin: none
  (3) fix lambda/la/csp/apip, perpetual
      attributes: full, newton on, cut 10
      pair build: full/bin/atomonly
      stencil: full/bin/3d
      bin: standard
Setting up Verlet run ...
  Unit style    : metal
  Current step  : 0
  Time step     : 0.001
Per MPI rank memory allocation (min/avg/max) = 38.15 | 38.15 | 38.15 Mbytes
   Step          Temp          TotEng     c_lambda_types[1] c_lambda_types[2] c_lambda_types[3] c_lambda_types[4] c_lambda_types[5]     Fnorm           Fmax      f_lambda_cspavg
         0   300           -28016.414      6200           400            1200           9144.7876      7930.576       74.421976      1.5932129      0            
         1   300.25157     -28016.414      6200           400            1200           9144.2404      7929.8605      74.387614      1.6207403      0            
         2   300.6794      -28016.415      6200           400            1200           9144.1058      7929.3898      74.307145      1.6437534      0            
         3   301.27995     -28016.415      6200           400            1200           9144.4017      7929.1823      74.181116      1.6621055      0            
         4   302.04772     -28016.416      6200           400            1200           9145.156       7929.2667      74.010438      1.6756759      0            
         5   302.97532     -28016.416      6200           400            1200           9146.4062      7929.6812      73.796367      1.6843725      0            
         6   304.05355     -28016.417      6200           400            1200           9148.1984      7930.4733      73.540515      1.6881322      0            
         7   305.27143     -28016.418      6200           400            1200           9150.5877      7931.6995      73.244847      1.6869228      0            
         8   306.61639     -28016.418      6200           400            1200           9153.6369      7933.4244      72.911671      1.6807432      0            
         9   308.0743      -28016.419      6200           400            1200           9157.4162      7935.7202      72.54362       1.6815297      0            
        10   309.62969     -28016.42       6200           400            1200           9162.0024      7938.6661      72.14365       1.6887256      0            
        11   311.26583     -28016.422      6200           400            1200           9167.4781      7942.3468      71.715025      1.6908727      0            
        12   312.96494     -28016.423      6200           400            1200           9173.9305      7946.8524      71.261301      1.6879919      0            
        13   314.70834     -28016.424      6200           400            1200           9181.4508      7952.277       70.786309      1.6801422      0            
        14   316.47661     -28016.425      6200           400            1200           9190.133       7958.7175      70.294131      1.6674191      0            
        15   318.24982     -28016.426      6200           400            1200           9200.073       7966.2732      69.789075      1.6499522      0            
        16   320.00771     -28016.428      6200           400            1200           9211.3672      7975.0437      69.275648      1.6279021      0            
        17   321.72983     -28016.429      6200           400            1200           9224.1116      7985.1287      68.758521      1.601457       0            
        18   323.39583     -28016.43       6200           400            1200           9238.4009      7996.6264      68.24249       1.5708486      0            
        19   324.98557     -28016.431      6200           400            1200           9254.3268      8009.6323      67.732441      1.56645        0            
        20   326.47935     -28016.433      6200           400            1200           9271.9774      8024.2386      67.233303      1.5572714      0            
        21   327.85812     -28016.434      6200           400            1200           9291.436       8040.5323      66.749994      1.5433791      0            
        22   329.10359     -28016.435      6200           400            1200           9312.78        8058.5948      66.287367      1.524871       0            
        23   330.19847     -28016.436      6200           400            1200           9336.0796      8078.5006      65.850157      1.5018767      0            
        24   331.1266      -28016.437      6200           400            1200           9361.3975      8100.3165      65.442924      1.4745548      0            
        25   331.87312     -28016.438      6200           400            1200           9388.7874      8124.1002      65.06999       1.4493804      0            
        26   332.42459     -28016.438      6200           400            1200           9418.2933      8149.9001      64.735378      1.4834339      0            
        27   332.76911     -28016.439      6200           400            1200           9449.9491      8177.7543      64.442756      1.5148475      0            
        28   332.89648     -28016.439      6200           400            1200           9483.7775      8207.6896      64.195372      1.5433818      0            
        29   332.79822     -28016.44       6200           400            1200           9519.7896      8239.7215      63.996014      1.5688056      0            
        30   332.46774     -28016.44       6200           400            1200           9557.9844      8273.8532      63.846953      1.5908994      0            
        31   331.90031     -28016.44       6200           400            1200           9598.3484      8310.0753      63.749914      1.6094574      0            
        32   331.09319     -28016.44       6200           400            1200           9640.8553      8348.366       63.706044      1.6242908      0            
        33   330.04558     -28016.44       6200           400            1200           9685.4661      8388.69        63.715885      1.6352299      0            
        34   328.75872     -28016.44       6200           400            1200           9732.1285      8430.9995      63.779372      1.642126       0            
        35   327.2358      -28016.44       6200           400            1200           9780.7772      8475.2333      63.895841      1.6448535      0            
        36   325.48201     -28016.439      6200           400            1200           9831.3344      8521.3175      64.064035      1.6433113      0            
        37   323.50443     -28016.439      6200           400            1200           9883.7093      8569.1656      64.282133      1.6374242      0            
        38   321.31203     -28016.438      6200           400            1200           9937.7993      8618.6788      64.547781      1.6271433      0            
        39   318.91559     -28016.437      6200           400            1200           9993.4897      8669.7466      64.858138      1.6124461      0            
        40   316.32757     -28016.436      6200           400            1200           10050.655      8722.2471      65.209918      1.5933369      0            
        41   313.56206     -28016.435      6200           400            1200           10109.158      8776.0481      65.59946       1.5698462      0            
        42   310.63462     -28016.434      6200           400            1200           10168.854      8831.0073      66.022773      1.5420296      0            
        43   307.56219     -28016.433      6200           400            1200           10229.587      8886.9736      66.475604      1.5099672      0            
        44   304.3629      -28016.432      6200           400            1200           10291.195      8943.7877      66.953493      1.485483       0            
        45   301.05596     -28016.43       6200           400            1200           10353.506      9001.2832      67.451832      1.4979817      0            
        46   297.66148     -28016.429      6200           400            1200           10416.345      9059.2875      67.965931      1.507327       0            
        47   294.20029     -28016.428      6200           400            1200           10479.53       9117.6232      68.491072      1.5323038      0            
        48   290.69379     -28016.426      6200           400            1200           10542.876      9176.1087      69.022555      1.567945       0            
        49   287.16373     -28016.425      6200           400            1200           10606.195      9234.5599      69.555739      1.5999804      0            
        50   283.63207     -28016.424      6200           400            1200           10669.298      9292.7911      70.086109      1.6283071      0            
        51   280.12077     -28016.422      6200           400            1200           10731.994      9350.616       70.609293      1.6528348      0            
        52   276.65162     -28016.421      6200           400            1200           10794.095      9407.8492      71.121116      1.6734874      0            
        53   273.24602     -28016.42       6200           400            1200           10855.413      9464.3075      71.617627      1.6902039      0            
        54   269.92488     -28016.418      6200           400            1200           10915.764      9519.8105      72.095109      1.726004       0            
        55   266.70836     -28016.417      6200           400            1200           10974.969      9574.1821      72.55013       1.7586895      0            
        56   263.6158      -28016.416      6200           400            1200           11032.854      9627.2518      72.979541      1.7962232      0            
        57   260.66549     -28016.415      6200           400            1200           11089.249      9678.8553      73.380491      1.8316148      0            
        58   257.87459     -28016.414      6200           400            1200           11143.995      9728.8356      73.750443      1.862607       0            
        59   255.25898     -28016.413      6200           400            1200           11196.94       9777.0442      74.087194      1.8890848      0            
        60   252.83314     -28016.412      6200           400            1200           11247.94       9823.3417      74.388857      1.9109533      0            
        61   250.61008     -28016.412      6200           400            1200           11296.861      9867.5987      74.653882      1.9281399      0            
        62   248.60123     -28016.411      6200           400            1200           11343.583      9909.6963      74.881041      1.9405952      0            
        63   246.81642     -28016.41       6200           400            1200           11387.992      9949.527       75.069432      1.9482942      0            
        64   245.26377     -28016.41       6200           400            1200           11429.991      9986.995       75.218475      1.9512368      0            
        65   243.94974     -28016.41       6200           400            1200           11469.492      10022.017      75.32789       1.9494482      0            
        66   242.87904     -28016.41       6200           400            1200           11506.42       10054.521      75.397695      1.9899409      0            
        67   242.05468     -28016.409      6200           400            1200           11540.713      10084.45       75.428194      2.0310029      0            
        68   241.47801     -28016.41       6200           400            1200           11572.323      10111.759      75.419951      2.0665544      0            
        69   241.14866     -28016.41       6200           400            1200           11601.214      10136.415      75.373791      2.0963777      0            
        70   241.06472     -28016.41       6200           400            1200           11627.364      10158.398      75.290767      2.1202949      0            
        71   241.22266     -28016.41       6200           400            1200           11650.762      10177.703      75.172142      2.1381709      0            
        72   241.61753     -28016.411      6200           400            1200           11671.413      10194.336      75.019375      2.1499155      0            
        73   242.24293     -28016.411      6200           400            1200           11689.33       10208.315      74.834103      2.1554855      0            
        74   243.0912      -28016.412      6200           400            1200           11704.543      10219.672      74.618114      2.1548847      0            
        75   244.15342     -28016.412      6200           400            1200           11717.089      10228.448      74.37333       2.1481642      0            
        76   245.41959     -28016.413      6200           400            1200           11727.021      10234.697      74.101792      2.1354207      0            
        77   246.87867     -28016.414      6200           400            1200           11734.398      10238.483      73.80564       2.1167953      0            
        78   248.51876     -28016.414      6200           400            1200           11739.292      10239.88       73.487084      2.0924691      0            
        79   250.32714     -28016.415      6200           400            1200           11741.785      10238.971      73.148395      2.0626614      0            
        80   252.29043     -28016.416      6200           400            1200           11741.964      10235.848      72.791899      2.0276244      0            
        81   254.39465     -28016.417      6200           400            1200           11739.929      10230.611      72.419946      1.9876397      0            
        82   256.6254      -28016.418      6200           400            1200           11735.783      10223.368      72.034901      1.9430127      0            
        83   258.96788     -28016.419      6200           400            1200           11729.638      10214.23       71.63913       1.8940678      0            
        84   261.40707     -28016.42       6200           400            1200           11721.612      10203.319      71.234989      1.8411438      0            
        85   263.92776     -28016.42       6200           400            1200           11711.825      10190.757      70.82482       1.7845885      0            
        86   266.51471     -28016.421      6200           400            1200           11700.406      10176.673      70.41094       1.724754       0            
        87   269.15268     -28016.422      6200           400            1200           11687.482      10161.197      69.995627      1.7221058      0            
        88   271.82656     -28016.423      6200           400            1200           11673.187      10144.464      69.581114      1.7284802      0            
        89   274.52142     -28016.424      6200           400            1200           11657.654      10126.608      69.169581      1.7314504      0            
        90   277.2226      -28016.425      6200           400            1200           11641.018      10107.766      68.763161      1.7386784      0            
        91   279.9158      -28016.426      6200           400            1200           11623.415      10088.073      68.363922      1.7665344      0            
        92   282.58709     -28016.427      6200           400            1200           11604.98       10067.665      67.973872      1.78994        0            
        93   285.22305     -28016.427      6200           400            1200           11585.845      10046.676      67.594942      1.8088476      0            
        94   287.81074     -28016.428      6200           400            1200           11566.142      10025.239      67.228982      1.823237       0            
        95   290.33784     -28016.429      6200           400            1200           11546          10003.481      66.877759      1.8331153      0            
        96   292.79264     -28016.429      6200           400            1200           11525.545      9981.5303      66.542958      1.8385168      0            
        97   295.1641      -28016.43       6200           400            1200           11504.899      9959.5074      66.226155      1.8395013      0            
        98   297.44189     -28016.43       6200           400            1200           11484.18       9937.5299      65.928833      1.8361527      0            
        99   299.61644     -28016.431      6200           400            1200           11463.499      9915.7101      65.652362      1.8285768      0            
       100   301.67897     -28016.431      6200           400            1200           11442.964      9894.1547      65.39799       1.8168992      0            
Loop time of 163.907 on 1 procs for 100 steps with 7800 atoms

Performance: 0.053 ns/day, 455.296 hours/ns, 0.610 timesteps/s, 4.759 katom-step/s
99.9% CPU use with 1 MPI tasks x no OpenMP threads

MPI task timing breakdown:
Section |  min time  |  avg time  |  max time  |%varavg| %total
---------------------------------------------------------------
Pair    | 160.15     | 160.15     | 160.15     |   0.0 | 97.71
Neigh   | 0          | 0          | 0          |   0.0 |  0.00
Comm    | 0.019566   | 0.019566   | 0.019566   |   0.0 |  0.01
Output  | 0.034599   | 0.034599   | 0.034599   |   0.0 |  0.02
Modify  | 3.6957     | 3.6957     | 3.6957     |   0.0 |  2.25
Other   |            | 0.003648   |            |       |  0.00

Nlocal:           7800 ave        7800 max        7800 min
Histogram: 1 0 0 0 0 0 0 0 0 0
Nghost:          16224 ave       16224 max       16224 min
Histogram: 1 0 0 0 0 0 0 0 0 0
Neighs:    1.33708e+06 ave 1.33708e+06 max 1.33708e+06 min
Histogram: 1 0 0 0 0 0 0 0 0 0
FullNghs:  2.67415e+06 ave 2.67415e+06 max 2.67415e+06 min
Histogram: 1 0 0 0 0 0 0 0 0 0

Total # of neighbors = 2674154
Ave neighs/atom = 342.84026
Neighbor list builds = 0
Dangerous builds = 0
Total wall time: 0:02:45
