LAMMPS (10 Dec 2025 - Development - 1b56d059aa)
OMP_NUM_THREADS environment is not set. Defaulting to 1 thread.
  using 1 OpenMP thread(s) per MPI task
Reading data file ...
  orthogonal box = (0 0 -1.1656272) to (36.15 36.15 362.81506)
  1 by 1 by 4 MPI processor grid
  reading atoms ...
  40200 atoms
  reading velocities ...
  40200 velocities
  read_data CPU = 0.131 seconds
39199 atoms in group group_descriptor
ACE version: 2023.11.25
Recursive evaluator is used by ACE
Loading ../../../potentials/Cu-PBE-core-rep.ace
Total number of basis functions
	Cu: 16 (r=1) 726 (r>1)
Mapping LAMMPS atom type #1(Cu) -> ACE species type #0
atomic load lambda:
	fast potential: extract eam/apip:time_per_atom
	precise potential: extract pace/apip:time_per_atom
	lambda_input: const 0
	lambda: const 0
Neighbor list info ...
  update: every = 1 steps, delay = 0 steps, check = yes
  max neighbors/atom: 2000, page size: 100000
  master list distance cutoff = 10
  ghost atom cutoff = 10
  binsize = 5, bins = 8 8 73
  4 neighbor lists, perpetual/occasional/extra = 4 0 0
  (1) pair eam/fs/apip, perpetual
      attributes: full, newton on
      pair build: full/bin/atomonly
      stencil: full/bin/3d
      bin: standard
  (2) pair pace/apip, perpetual, trim from (4)
      attributes: full, newton on, cut 9.4
      pair build: trim
      stencil: none
      bin: none
  (3) pair zero, perpetual, half/full from (1)
      attributes: half, newton on, cut 10
      pair build: halffull/newton
      stencil: none
      bin: none
  (4) fix lambda/la/csp/apip, perpetual
      attributes: full, newton on, cut 10
      pair build: full/bin/atomonly
      stencil: full/bin/3d
      bin: standard
Setting up Verlet run ...
  Unit style    : metal
  Current step  : 0
  Time step     : 0.001
  eam/apip      : compute potential energies for local-averaging forces
  pace/apip     : compute potential energies for local-averaging forces
Per MPI rank memory allocation (min/avg/max) = 59.11 | 60 | 60.7 Mbytes
   Step     f_weight_atom[1] f_weight_atom[2]     S/CPU     
         0   0              0              0            
        10   2.2004511e-06  0.00020120268  2.7188186    
        20   2.6680135e-06  0.00023214401  3.3765329    
        30   3.0003241e-06  0.00026619184  3.1146964    
        40   3.0660002e-06  0.00026753956  3.0865841    
        50   3.1002383e-06  0.00026765471  3.0872086    
        60   3.1461764e-06  0.00026861748  3.0768987    
        70   3.1924326e-06  0.00027130184  3.0596055    
        80   3.2243077e-06  0.00027164931  3.0371418    
        90   3.2690652e-06  0.00027964361  2.9824322    
       100   3.2809643e-06  0.00027343349  2.9569175    
Loop time of 32.8752 on 4 procs for 100 steps with 40200 atoms

Performance: 0.263 ns/day, 91.320 hours/ns, 3.042 timesteps/s, 122.281 katom-step/s
99.7% CPU use with 4 MPI tasks x 1 OpenMP threads

MPI task timing breakdown:
Section |  min time  |  avg time  |  max time  |%varavg| %total
---------------------------------------------------------------
Pair    | 7.8837     | 8.2599     | 9.3337     |  21.6 | 25.13
Neigh   | 1.6592     | 1.6658     | 1.6739     |   0.4 |  5.07
Comm    | 0.37422    | 0.88923    | 1.9938     |  68.4 |  2.70
Output  | 0.00016505 | 0.00035787 | 0.00047908 |   0.0 |  0.00
Modify  | 21.293     | 22.043     | 22.928     |  16.0 | 67.05
Other   |            | 0.01712    |            |       |  0.05

Nlocal:          10050 ave       10584 max        9705 min
Histogram: 1 0 1 1 0 0 0 0 0 1
Nghost:          34271 ave       34616 max       33737 min
Histogram: 1 0 0 0 0 0 1 1 0 1
Neighs:    1.77282e+06 ave 1.86762e+06 max  1.7121e+06 min
Histogram: 1 0 1 1 0 0 0 0 0 1
FullNghs:  3.54563e+06 ave 3.73425e+06 max 3.42275e+06 min
Histogram: 1 0 1 1 0 0 0 0 0 1

Total # of neighbors = 14182534
Ave neighs/atom = 352.79935
Neighbor list builds = 10
Dangerous builds = 0
Total wall time: 0:00:33
