LAMMPS (22 Jul 2025 - Development - )
Reading data file ...
  orthogonal box = (0 0 0) to (36.15 36.15 90.375)
  1 by 1 by 1 MPI processor grid
  reading atoms ...
  7800 atoms
  reading velocities ...
  7800 velocities
  read_data CPU = 0.025 seconds
ACE version: 2023.11.25
Recursive evaluator is used by ACE
Loading ../../../potentials/Cu-PBE-core-rep.ace
Total number of basis functions
	Cu: 16 (r=1) 726 (r>1)
Mapping LAMMPS atom type #1(Cu) -> ACE species type #0
Neighbor list info ...
  update: every = 1 steps, delay = 0 steps, check = yes
  max neighbors/atom: 2000, page size: 100000
  master list distance cutoff = 10
  ghost atom cutoff = 10
  binsize = 5, bins = 8 8 19
  5 neighbor lists, perpetual/occasional/extra = 5 0 0
  (1) pair eam/fs/apip, perpetual
      attributes: full, newton on
      pair build: full/bin/atomonly
      stencil: full/bin/3d
      bin: standard
  (2) pair pace/apip, perpetual, trim from (4)
      attributes: full, newton on, cut 9.4
      pair build: trim
      stencil: none
      bin: none
  (3) pair zero, perpetual, half/full from (1)
      attributes: half, newton on, cut 10
      pair build: halffull/newton
      stencil: none
      bin: none
  (4) pair la/csp/apip, perpetual, copy from (5)
      attributes: full, newton on, cut 10
      pair build: copy
      stencil: none
      bin: none
  (5) fix lambda/la/csp/apip, perpetual
      attributes: full, newton on, cut 10
      pair build: full/bin/atomonly
      stencil: full/bin/3d
      bin: standard
Setting up Verlet run ...
  Unit style    : metal
  Current step  : 0
  Time step     : 0.001
  eam/apip      : compute potential energies for local-averaging forces
  pace/apip     : compute potential energies for local-averaging forces
Per MPI rank memory allocation (min/avg/max) = 58.99 | 58.99 | 58.99 Mbytes
   Step          Temp          TotEng     c_lambda_types[1] c_lambda_types[2] c_lambda_types[3] c_lambda_types[4] c_lambda_types[5]     Fnorm           Fmax      f_lambda_cspavg
         0   300           -27986.578      6200           400            1200           9144.7876      7930.576       78.274475      1.8980813      0            
         1   300.25324     -27986.59       6200           400            1200           9156.1665      7939.3905      78.230141      1.8832129      28           
         2   300.75872     -27986.592      6200           400            1200           9161.0618      7942.8986      78.134373      1.8817706      25           
         3   301.51134     -27986.565      6200           400            1200           9158.9328      7940.6023      77.991993      1.9039329      37           
         4   302.504       -27986.604      6200           400            1200           9161.7429      7942.2514      77.774306      1.9214504      38           
         5   303.72617     -27986.59       6200           400            1200           9151.348       7933.3336      77.519947      1.9343783      47           
         6   305.16531     -27986.578      6200           400            1200           9135.4814      7919.6684      77.215677      1.9370612      33           
         7   306.80754     -27986.583      6200           400            1200           9112.1005      7900.0315      76.860228      1.9373026      35           
         8   308.63685     -27986.588      6200           400            1200           9090.61        7881.7569      76.460644      1.9365489      41           
         9   310.6345      -27986.603      6200           400            1200           9091.1232      7881.0726      76.001528      1.9311333      33           
        10   312.77783     -27986.642      6200           400            1200           9133.4156      7913.7985      75.480385      1.9214547      49           
        11   315.04441     -27986.62       6200           400            1200           9128.5795      7908.8193      74.960651      1.9074526      36           
        12   317.41145     -27986.627      6200           400            1200           9134.2315      7912.266       74.399202      1.8992352      33           
        13   319.85345     -27986.642      6200           400            1200           9128.4267      7906.535       73.81715       1.876606       39           
        14   322.34494     -27986.602      6200           400            1200           9128.1017      7905.3489      73.226197      1.8677999      27           
        15   324.85844     -27986.574      6200           400            1200           9139.7457      7913.8949      72.613912      1.870317       39           
        16   327.36651     -27986.591      6200           400            1200           9134.3523      7908.933       71.988089      1.8691569      32           
        17   329.84199     -27986.588      6200           400            1200           9139.8216      7912.7976      71.360748      1.8645829      42           
        18   332.25914     -27986.606      6200           400            1200           9122.7881      7898.8124      70.742458      1.8559698      36           
        19   334.59109     -27986.607      6200           400            1200           9130.2581      7904.6492      70.128002      1.8436626      34           
        20   336.8099      -27986.596      6200           400            1200           9144.4873      7916.2503      69.530151      1.8277363      40           
        21   338.89086     -27986.572      6200           400            1200           9141.3278      7914.1949      68.969454      1.8088502      38           
        22   340.80979     -27986.585      6200           400            1200           9150.9396      7922.6998      68.425343      1.7856614      36           
        23   342.54367     -27986.608      6200           400            1200           9162.2682      7932.8379      67.913815      1.7590059      41           
        24   344.07115     -27986.622      6200           400            1200           9173.9166      7943.6362      67.446137      1.7297845      37           
        25   345.37271     -27986.629      6200           400            1200           9176.457       7947.4497      67.033286      1.6963463      31           
        26   346.43082     -27986.679      6200           400            1200           9187.1389      7958.1174      66.661898      1.6595952      27           
        27   347.23023     -27986.684      6200           400            1200           9186.8598      7960.472       66.365672      1.6199066      36           
        28   347.75877     -27986.709      6200           400            1200           9187.5458      7963.9467      66.127452      1.5987156      34           
        29   348.00399     -27986.679      6200           400            1200           9206.2598      7982.2689      65.965024      1.6300944      37           
        30   347.95746     -27986.679      6200           400            1200           9215.5996      7993.4776      65.867674      1.6577065      25           
        31   347.61473     -27986.717      6200           400            1200           9226.0705      8006.0511      65.830694      1.6813013      33           
        32   346.97038     -27986.646      6200           400            1200           9256.886       8035.2518      65.889895      1.70065        38           
        33   346.02434     -27986.645      6200           400            1200           9275.927       8055.3245      66.005996      1.7155483      37           
        34   344.7804      -27986.669      6200           400            1200           9286.1278      8068.7513      66.191398      1.7258186      27           
        35   343.24358     -27986.684      6200           400            1200           9297.9736      8083.9609      66.450489      1.7313125      25           
        36   341.4203      -27986.628      6200           400            1200           9329.13        8114.9145      66.79024       1.7319118      28           
        37   339.32115     -27986.649      6200           400            1200           9337.1446      8127.7132      67.181744      1.7275298      33           
        38   336.95812     -27986.587      6200           400            1200           9376.3673      8165.8837      67.646467      1.7181117      32           
        39   334.34383     -27986.486      6200           400            1200           9422.1256      8209.5427      68.17456       1.7036352      31           
        40   331.49822     -27986.461      6200           400            1200           9451.9537      8240.6825      68.738582      1.7269577      24           
        41   328.44199     -27986.404      6200           400            1200           9488.5043      8277.3645      69.351984      1.7513056      29           
        42   325.19716     -27986.403      6200           400            1200           9514.2586      8305.6178      69.989382      1.7832775      27           
        43   321.78894     -27986.395      6200           400            1200           9541.1142      8334.9048      70.659082      1.8091786      33           
        44   318.2426      -27986.379      6200           400            1200           9568.2267      8364.5288      71.35404       1.8279543      31           
        45   314.58397     -27986.407      6200           400            1200           9589.8646      8389.7664      72.056298      1.8395111      16           
        46   310.83888     -27986.327      6200           400            1200           9634.6341      8433.6375      72.788121      1.8409578      27           
        47   307.03684     -27986.356      6200           400            1200           9656.5891      8459.2303      73.499243      1.837856       19           
        48   303.20687     -27986.354      6200           400            1200           9684.2377      8489.3753      74.211943      1.8277677      16           
        49   299.37699     -27986.365      6200           400            1200           9711.716       8519.2784      74.914969      1.8439257      37           
        50   295.5754      -27986.383      6200           400            1200           9736.9426      8547.2443      75.591845      1.870263       19           
        51   291.82989     -27986.367      6200           400            1200           9768.2987      8580.0202      76.252459      1.8919793      22           
        52   288.16872     -27986.364      6200           400            1200           9799.2059      8612.178       76.887339      1.9093035      27           
        53   284.61766     -27986.34       6200           400            1200           9829.1487      8643.384       77.489848      1.9553941      25           
        54   281.20254     -27986.314      6200           400            1200           9856.7665      8672.374       78.05486       2.0057931      22           
        55   277.94721     -27986.219      6200           400            1200           9888.9235      8704.7489      78.587376      2.0508035      23           
        56   274.87319     -27986.253      6200           400            1200           9908.7469      8726.9429      79.04952       2.0902608      18           
        57   272.00193     -27986.166      6200           400            1200           9938.5103      8756.7042      79.492505      2.1238119      24           
        58   269.35421     -27986.179      6200           400            1200           9949.4207      8771.0787      79.867267      2.1513755      30           
        59   266.94654     -27986.179      6200           400            1200           9963.1815      8787.242       80.182533      2.1728226      25           
        60   264.79118     -27986.23       6200           400            1200           9969.5806      8797.0717      80.435868      2.1880614      16           
        61   262.89926     -27986.189      6200           400            1200           9984.1024      8812.9996      80.649827      2.1970393      20           
        62   261.28065     -27986.188      6200           400            1200           9991.536       8822.7251      80.797876      2.1997476      26           
        63   259.94178     -27986.176      6200           400            1200           10003.208      8835.3526      80.894428      2.1962186      19           
        64   258.8859      -27986.175      6200           400            1200           10006.105      8840.4617      80.932758      2.1865085      19           
        65   258.11397     -27986.174      6200           400            1200           10006.866      8843.3612      80.916737      2.1707538      14           
        66   257.62569     -27986.16       6200           400            1200           10010.916      8848.3629      80.849902      2.1973459      19           
        67   257.41922     -27986.19       6200           400            1200           10001.674      8842.2292      80.728054      2.2318924      21           
        68   257.4897      -27986.191      6200           400            1200           10001.046      8842.4495      80.558243      2.2596916      24           
        69   257.82994     -27986.099      6200           400            1200           10003.507      8844.6688      80.35882       2.2805677      18           
        70   258.43095     -27986.028      6200           400            1200           10003.749      8844.625       80.111264      2.294401       15           
        71   259.28106     -27986.03       6200           400            1200           9990.4951      8833.3128      79.813284      2.3011306      13           
        72   260.36779     -27986.001      6200           400            1200           9981.1096      8824.6656      79.480549      2.3007549      19           
        73   261.67806     -27985.937      6200           400            1200           9975.5317      8818.4933      79.121387      2.2933316      18           
        74   263.19696     -27985.936      6200           400            1200           9956.5698      8801.2935      78.717794      2.2789758      20           
        75   264.90876     -27985.932      6200           400            1200           9936.1562      8782.5293      78.293567      2.2578575      16           
        76   266.79682     -27985.933      6200           400            1200           9913.6515      8761.7161      77.838885      2.2301976      17           
        77   268.84268     -27985.934      6200           400            1200           9889.8226      8739.4958      77.364457      2.1962637      8            
        78   271.02768     -27985.922      6200           400            1200           9869.9687      8720.1737      76.873601      2.1563639      10           
        79   273.33382     -27985.924      6200           400            1200           9843.4868      8695.2109      76.368078      2.1108415      14           
        80   275.74269     -27985.925      6200           400            1200           9816.0004      8669.18        75.855222      2.0600683      15           
        81   278.23572     -27985.896      6200           400            1200           9801.4218      8653.1999      75.339788      2.0044383      18           
        82   280.79426     -27985.845      6200           400            1200           9782.2436      8633.4426      74.822006      1.944361       21           
        83   283.3997      -27985.848      6200           400            1200           9751.8503      8604.4813      74.299212      1.9166972      12           
        84   286.03396     -27985.813      6200           400            1200           9731.9764      8583.7682      73.785547      1.9156434      12           
        85   288.6802      -27985.814      6200           400            1200           9706.6635      8558.7005      73.269661      1.9096858      17           
        86   291.32158     -27985.8        6200           400            1200           9681.3787      8533.4592      72.763244      1.898972       20           
        87   293.9416      -27985.801      6200           400            1200           9650.5619      8503.7796      72.270345      1.8837144      15           
        88   296.52429     -27985.792      6200           400            1200           9614.4643      8469.9427      71.794465      1.8704867      19           
        89   299.05411     -27985.793      6200           400            1200           9583.9371      8440.4932      71.330693      1.8805607      9            
        90   301.51769     -27985.804      6200           400            1200           9549.466       8407.9504      70.887154      1.8878949      19           
        91   303.9027      -27985.769      6200           400            1200           9525.6668      8383.9109      70.46593       1.9077294      12           
        92   306.19722     -27985.757      6200           400            1200           9502.3211      8360.4208      70.059667      1.9222481      21           
        93   308.38958     -27985.758      6200           400            1200           9473.9707      8333.0353      69.679684      1.9314699      17           
        94   310.46896     -27985.758      6200           400            1200           9446.6437      8306.6225      69.323611      1.9354342      17           
        95   312.42636     -27985.759      6200           400            1200           9420.0474      8280.966       68.994104      1.9342158      24           
        96   314.25341     -27985.759      6200           400            1200           9394.4363      8256.2882      68.693362      1.9279214      17           
        97   315.94235     -27985.758      6200           400            1200           9370.4259      8233.0996      68.419695      1.9166872      16           
        98   317.48656     -27985.759      6200           400            1200           9347.4216      8210.9402      68.174771      1.9006747      18           
        99   318.88069     -27985.761      6200           400            1200           9326.2777      8190.5132      67.961023      1.8971936      13           
       100   320.1205      -27985.76       6200           400            1200           9306.2388      8171.2214      67.774976      1.9067561      22           
Loop time of 44.2188 on 1 procs for 100 steps with 7800 atoms

Performance: 0.195 ns/day, 122.830 hours/ns, 2.261 timesteps/s, 17.640 katom-step/s
99.9% CPU use with 1 MPI tasks x no OpenMP threads

MPI task timing breakdown:
Section |  min time  |  avg time  |  max time  |%varavg| %total
---------------------------------------------------------------
Pair    | 37.364     | 37.364     | 37.364     |   0.0 | 84.50
Neigh   | 0          | 0          | 0          |   0.0 |  0.00
Comm    | 0.016893   | 0.016893   | 0.016893   |   0.0 |  0.04
Output  | 0.035015   | 0.035015   | 0.035015   |   0.0 |  0.08
Modify  | 6.7989     | 6.7989     | 6.7989     |   0.0 | 15.38
Other   |            | 0.003543   |            |       |  0.01

Nlocal:           7800 ave        7800 max        7800 min
Histogram: 1 0 0 0 0 0 0 0 0 0
Nghost:          16224 ave       16224 max       16224 min
Histogram: 1 0 0 0 0 0 0 0 0 0
Neighs:    1.33708e+06 ave 1.33708e+06 max 1.33708e+06 min
Histogram: 1 0 0 0 0 0 0 0 0 0
FullNghs:  2.67415e+06 ave 2.67415e+06 max 2.67415e+06 min
Histogram: 1 0 0 0 0 0 0 0 0 0

Total # of neighbors = 2674154
Ave neighs/atom = 342.84026
Neighbor list builds = 0
Dangerous builds = 0
Total wall time: 0:00:44
