LAMMPS (10 Dec 2025 - Development - 1b56d059aa)
OMP_NUM_THREADS environment is not set. Defaulting to 1 thread.
  using 1 OpenMP thread(s) per MPI task
Reading data file ...
  orthogonal box = (0 0 0) to (36.15 36.15 90.375)
  1 by 1 by 1 MPI processor grid
  reading atoms ...
  7800 atoms
  reading velocities ...
  7800 velocities
  read_data CPU = 0.025 seconds
ACE version: 2023.11.25
Recursive evaluator is used by ACE
Loading ../../../potentials/Cu-PBE-core-rep.ace
Total number of basis functions
	Cu: 16 (r=1) 726 (r>1)
Mapping LAMMPS atom type #1(Cu) -> ACE species type #0
Neighbor list info ...
  update: every = 1 steps, delay = 0 steps, check = yes
  max neighbors/atom: 2000, page size: 100000
  master list distance cutoff = 10
  ghost atom cutoff = 10
  binsize = 5, bins = 8 8 19
  4 neighbor lists, perpetual/occasional/extra = 4 0 0
  (1) pair eam/fs/apip, perpetual
      attributes: full, newton on
      pair build: full/bin/atomonly
      stencil: full/bin/3d
      bin: standard
  (2) pair pace/apip, perpetual, trim from (4)
      attributes: full, newton on, cut 9.4
      pair build: trim
      stencil: none
      bin: none
  (3) pair zero, perpetual, half/full from (1)
      attributes: half, newton on, cut 10
      pair build: halffull/newton
      stencil: none
      bin: none
  (4) fix lambda/la/csp/apip, perpetual
      attributes: full, newton on, cut 10
      pair build: full/bin/atomonly
      stencil: full/bin/3d
      bin: standard
Setting up Verlet run ...
  Unit style    : metal
  Current step  : 0
  Time step     : 0.001
  eam/apip      : compute potential energies for local-averaging forces
  pace/apip     : compute potential energies for local-averaging forces
Per MPI rank memory allocation (min/avg/max) = 48.68 | 48.68 | 48.68 Mbytes
   Step          Temp          TotEng     c_lambda_types[1] c_lambda_types[2] c_lambda_types[3]     Fnorm           Fmax     
         0   300           -27986.578      6200           400            1200           78.274475      1.8980813    
         1   300.25293     -27986.578      6200           400            1200           78.238783      1.8831771    
         2   300.75801     -27986.578      6200           400            1200           78.145004      1.8818525    
         3   301.5106      -27986.578      6200           400            1200           77.993846      1.903825     
         4   302.50339     -27986.579      6200           400            1200           77.78649       1.921384     
         5   303.72645     -27986.58       6200           400            1200           77.524584      1.9344894    
         6   305.16732     -27986.581      6200           400            1200           77.210243      1.9431216    
         7   306.81117     -27986.582      6200           400            1200           76.846044      1.9472821    
         8   308.6409      -27986.583      6200           400            1200           76.435017      1.9469926    
         9   310.63733     -27986.584      6200           400            1200           75.980638      1.9422942    
        10   312.7794      -27986.586      6200           400            1200           75.486818      1.9332464    
        11   315.04438     -27986.587      6200           400            1200           74.957887      1.9199259    
        12   317.40806     -27986.589      6200           400            1200           74.398579      1.9024246    
        13   319.84504     -27986.591      6200           400            1200           73.814008      1.8808485    
        14   322.32892     -27986.592      6200           400            1200           73.209647      1.8763926    
        15   324.83263     -27986.594      6200           400            1200           72.591293      1.8794709    
        16   327.32863     -27986.596      6200           400            1200           71.965033      1.8788296    
        17   329.7892      -27986.598      6200           400            1200           71.337202      1.8744605    
        18   332.18674     -27986.599      6200           400            1200           70.714337      1.8663709    
        19   334.49397     -27986.601      6200           400            1200           70.103118      1.854583     
        20   336.68426     -27986.603      6200           400            1200           69.510304      1.8391333    
        21   338.73186     -27986.604      6200           400            1200           68.942668      1.8200711    
        22   340.61211     -27986.606      6200           400            1200           68.406915      1.7974577    
        23   342.30175     -27986.607      6200           400            1200           67.909591      1.771365     
        24   343.77909     -27986.609      6200           400            1200           67.456996      1.7418743    
        25   345.02425     -27986.61       6200           400            1200           67.055084      1.7090746    
        26   346.01935     -27986.611      6200           400            1200           66.709359      1.6730614    
        27   346.74867     -27986.612      6200           400            1200           66.42477       1.6339358    
        28   347.19884     -27986.612      6200           400            1200           66.205617      1.5987156    
        29   347.359       -27986.613      6200           400            1200           66.055445      1.6300944    
        30   347.22087     -27986.613      6200           400            1200           65.976967      1.6577065    
        31   346.77889     -27986.613      6200           400            1200           65.971986      1.6813013    
        32   346.03028     -27986.614      6200           400            1200           66.041339      1.70065      
        33   344.97511     -27986.613      6200           400            1200           66.18486       1.7155483    
        34   343.61633     -27986.613      6200           400            1200           66.401369      1.7258186    
        35   341.95972     -27986.613      6200           400            1200           66.688678      1.7313125    
        36   340.01392     -27986.612      6200           400            1200           67.04363       1.7319118    
        37   337.79034     -27986.611      6200           400            1200           67.462149      1.7275298    
        38   335.30308     -27986.61       6200           400            1200           67.939328      1.7181117    
        39   332.56879     -27986.609      6200           400            1200           68.469522      1.7281404    
        40   329.60652     -27986.608      6200           400            1200           69.046448      1.7621445    
        41   326.43755     -27986.606      6200           400            1200           69.663327      1.7908909    
        42   323.08518     -27986.605      6200           400            1200           70.312992      1.8141162    
        43   319.57446     -27986.603      6200           400            1200           70.988031      1.8316009    
        44   315.93196     -27986.601      6200           400            1200           71.680905      1.8431751    
        45   312.18546     -27986.599      6200           400            1200           72.384067      1.8562635    
        46   308.36368     -27986.598      6200           400            1200           73.090089      1.8621448    
        47   304.49596     -27986.596      6200           400            1200           73.791754      1.8605784    
        48   300.61191     -27986.594      6200           400            1200           74.482146      1.8517209    
        49   296.74114     -27986.592      6200           400            1200           75.154727      1.8491246    
        50   292.91294     -27986.59       6200           400            1200           75.803397      1.8595341    
        51   289.15594     -27986.588      6200           400            1200           76.422555      1.8641132    
        52   285.49785     -27986.587      6200           400            1200           77.007123      1.894045     
        53   281.96518     -27986.585      6200           400            1200           77.552572      1.9481868    
        54   278.58299     -27986.584      6200           400            1200           78.054941      1.9971093    
        55   275.37464     -27986.582      6200           400            1200           78.510837      2.0405785    
        56   272.36163     -27986.581      6200           400            1200           78.917429      2.0783886    
        57   269.56339     -27986.58       6200           400            1200           79.272438      2.1103651    
        58   266.99717     -27986.579      6200           400            1200           79.574125      2.1363674    
        59   264.67791     -27986.578      6200           400            1200           79.821268      2.1562906    
        60   262.61814     -27986.577      6200           400            1200           80.013135      2.1700674    
        61   260.82799     -27986.577      6200           400            1200           80.149455      2.1776689    
        62   259.31509     -27986.576      6200           400            1200           80.230404      2.1791048    
        63   258.08466     -27986.576      6200           400            1200           80.256562      2.1744237    
        64   257.13947     -27986.576      6200           400            1200           80.228895      2.163712     
        65   256.47995     -27986.576      6200           400            1200           80.148721      2.156281     
        66   256.10423     -27986.576      6200           400            1200           80.017679      2.1973459    
        67   256.00828     -27986.577      6200           400            1200           79.837706      2.2318924    
        68   256.18599     -27986.577      6200           400            1200           79.611007      2.2596916    
        69   256.62934     -27986.578      6200           400            1200           79.340018      2.2805677    
        70   257.32852     -27986.578      6200           400            1200           79.027383      2.294401     
        71   258.2721      -27986.579      6200           400            1200           78.675923      2.3011306    
        72   259.4472      -27986.58       6200           400            1200           78.288612      2.3007549    
        73   260.83964     -27986.581      6200           400            1200           77.868542      2.2933316    
        74   262.43413     -27986.582      6200           400            1200           77.418901      2.2789758    
        75   264.21445     -27986.583      6200           400            1200           76.942945      2.2578575    
        76   266.16359     -27986.584      6200           400            1200           76.443969      2.2301976    
        77   268.26397     -27986.585      6200           400            1200           75.925287      2.1962637    
        78   270.49757     -27986.586      6200           400            1200           75.390212      2.1563639    
        79   272.84607     -27986.587      6200           400            1200           74.842031      2.1108415    
        80   275.29105     -27986.588      6200           400            1200           74.283982      2.0600683    
        81   277.81411     -27986.589      6200           400            1200           73.719248      2.0073725    
        82   280.39697     -27986.59       6200           400            1200           73.150934      2.0149872    
        83   283.02163     -27986.591      6200           400            1200           72.582061      2.0163263    
        84   285.67047     -27986.592      6200           400            1200           72.015551      2.0114399    
        85   288.32635     -27986.593      6200           400            1200           71.454221      2.000425     
        86   290.97268     -27986.593      6200           400            1200           70.90078       1.9834243    
        87   293.59352     -27986.594      6200           400            1200           70.357813      1.9606235    
        88   296.17366     -27986.595      6200           400            1200           69.827778      1.9322486    
        89   298.69864     -27986.596      6200           400            1200           69.313018      1.8985625    
        90   301.15484     -27986.596      6200           400            1200           68.815745      1.8976504    
        91   303.5295      -27986.597      6200           400            1200           68.338041      1.9177994    
        92   305.81074     -27986.597      6200           400            1200           67.88186       1.9325333    
        93   307.98764     -27986.598      6200           400            1200           67.449023      1.9418501    
        94   310.0502      -27986.598      6200           400            1200           67.041221      1.9457862    
        95   311.9894      -27986.599      6200           400            1200           66.660004      1.9444149    
        96   313.79718     -27986.599      6200           400            1200           66.306784      1.9378447    
        97   315.46647     -27986.599      6200           400            1200           65.982832      1.9262156    
        98   316.99118     -27986.599      6200           400            1200           65.689271      1.9096966    
        99   318.3662      -27986.599      6200           400            1200           65.427067      1.8884814    
       100   319.58737     -27986.6        6200           400            1200           65.197033      1.8627854    
Loop time of 41.9933 on 1 procs for 100 steps with 7800 atoms

Performance: 0.206 ns/day, 116.648 hours/ns, 2.381 timesteps/s, 18.574 katom-step/s
99.9% CPU use with 1 MPI tasks x 1 OpenMP threads

MPI task timing breakdown:
Section |  min time  |  avg time  |  max time  |%varavg| %total
---------------------------------------------------------------
Pair    | 30.283     | 30.283     | 30.283     |   0.0 | 72.11
Neigh   | 0          | 0          | 0          |   0.0 |  0.00
Comm    | 0.018613   | 0.018613   | 0.018613   |   0.0 |  0.04
Output  | 0.034844   | 0.034844   | 0.034844   |   0.0 |  0.08
Modify  | 11.654     | 11.654     | 11.654     |   0.0 | 27.75
Other   |            | 0.00356    |            |       |  0.01

Nlocal:           7800 ave        7800 max        7800 min
Histogram: 1 0 0 0 0 0 0 0 0 0
Nghost:          16224 ave       16224 max       16224 min
Histogram: 1 0 0 0 0 0 0 0 0 0
Neighs:    1.33708e+06 ave 1.33708e+06 max 1.33708e+06 min
Histogram: 1 0 0 0 0 0 0 0 0 0
FullNghs:  2.67415e+06 ave 2.67415e+06 max 2.67415e+06 min
Histogram: 1 0 0 0 0 0 0 0 0 0

Total # of neighbors = 2674154
Ave neighs/atom = 342.84026
Neighbor list builds = 0
Dangerous builds = 0
Total wall time: 0:00:42
