LAMMPS (22 Jul 2025 - Development - )
Reading data file ...
  orthogonal box = (0 0 0) to (36.15 36.15 90.375)
  1 by 1 by 1 MPI processor grid
  reading atoms ...
  7800 atoms
  reading velocities ...
  7800 velocities
  read_data CPU = 0.025 seconds
ACE version: 2023.11.25
Recursive evaluator is used by ACE
Loading ../../../potentials/Cu-PBE-core-rep.ace
Total number of basis functions
	Cu: 16 (r=1) 726 (r>1)
Mapping LAMMPS atom type #1(Cu) -> ACE species type #0
Neighbor list info ...
  update: every = 1 steps, delay = 0 steps, check = yes
  max neighbors/atom: 2000, page size: 100000
  master list distance cutoff = 10
  ghost atom cutoff = 10
  binsize = 5, bins = 8 8 19
  5 neighbor lists, perpetual/occasional/extra = 5 0 0
  (1) pair eam/fs/apip, perpetual
      attributes: full, newton on
      pair build: full/bin/atomonly
      stencil: full/bin/3d
      bin: standard
  (2) pair pace/apip, perpetual, trim from (4)
      attributes: full, newton on, cut 9.4
      pair build: trim
      stencil: none
      bin: none
  (3) pair zero, perpetual, half/full from (1)
      attributes: half, newton on, cut 10
      pair build: halffull/newton
      stencil: none
      bin: none
  (4) pair la/csp/apip, perpetual, copy from (5)
      attributes: full, newton on, cut 10
      pair build: copy
      stencil: none
      bin: none
  (5) fix lambda/la/csp/apip, perpetual
      attributes: full, newton on, cut 10
      pair build: full/bin/atomonly
      stencil: full/bin/3d
      bin: standard
Setting up Verlet run ...
  Unit style    : metal
  Current step  : 0
  Time step     : 0.001
  eam/apip      : compute potential energies for local-averaging forces
  pace/apip     : compute potential energies for local-averaging forces
Per MPI rank memory allocation (min/avg/max) = 59.12 | 59.12 | 59.12 Mbytes
   Step          Temp          TotEng     c_lambda_types[1] c_lambda_types[2] c_lambda_types[3] c_lambda_types[4] c_lambda_types[5]     Fnorm           Fmax      f_lambda_cspavg
         0   300           -27986.578      6200           400            1200           9144.7876      7930.576       78.274475      1.8980813      0            
         1   300.25293     -27986.578      6200           400            1200           9144.2058      7929.8126      78.238783      1.8831771      0            
         2   300.75801     -27986.578      6200           400            1200           9143.9678      7929.1988      78.145004      1.8818525      0            
         3   301.5106      -27986.578      6200           400            1200           9144.0953      7928.7567      77.993846      1.903825       0            
         4   302.50339     -27986.579      6200           400            1200           9144.6221      7928.5212      77.78649       1.921384       0            
         5   303.72645     -27986.58       6200           400            1200           9145.5941      7928.5395      77.524584      1.9344894      0            
         6   305.16732     -27986.581      6200           400            1200           9147.0687      7928.8707      77.210243      1.9431216      0            
         7   306.81117     -27986.582      6200           400            1200           9149.114       7929.5849      76.846044      1.9472821      0            
         8   308.6409      -27986.583      6200           400            1200           9151.8084      7930.7627      76.435017      1.9469926      0            
         9   310.63733     -27986.584      6200           400            1200           9155.2391      7932.4943      75.980638      1.9422942      0            
        10   312.7794      -27986.586      6200           400            1200           9159.5015      7934.878       75.486818      1.9332464      0            
        11   315.04438     -27986.587      6200           400            1200           9164.6981      7938.0197      74.957887      1.9199259      0            
        12   317.40806     -27986.589      6200           400            1200           9170.9371      7942.0311      74.398579      1.9024246      0            
        13   319.84504     -27986.591      6200           400            1200           9178.3308      7947.0287      73.814008      1.8808485      0            
        14   322.32892     -27986.592      6200           400            1200           9186.9951      7953.1324      73.209647      1.8763926      0            
        15   324.83263     -27986.594      6200           400            1200           9197.0471      7960.4639      72.591293      1.8794709      0            
        16   327.32863     -27986.596      6200           400            1200           9208.6043      7969.1455      71.965033      1.8788296      0            
        17   329.7892      -27986.598      6200           400            1200           9221.7828      7979.2981      71.337202      1.8744605      0            
        18   332.18674     -27986.599      6200           400            1200           9236.696       7991.0403      70.714337      1.8663709      0            
        19   334.49397     -27986.601      6200           400            1200           9253.4528      8004.4865      70.103118      1.854583       0            
        20   336.68426     -27986.603      6200           400            1200           9272.1565      8019.7455      69.510304      1.8391333      0            
        21   338.73186     -27986.604      6200           400            1200           9292.9031      8036.9189      68.942668      1.8200711      0            
        22   340.61211     -27986.606      6200           400            1200           9315.7801      8056.1003      68.406915      1.7974577      0            
        23   342.30175     -27986.607      6200           400            1200           9340.8651      8077.373       67.909591      1.771365       0            
        24   343.77909     -27986.609      6200           400            1200           9368.2244      8100.8098      67.456996      1.7418743      0            
        25   345.02425     -27986.61       6200           400            1200           9397.9121      8126.471       67.055084      1.7090746      0            
        26   346.01935     -27986.611      6200           400            1200           9429.9691      8154.4037      66.709359      1.6730614      0            
        27   346.74867     -27986.612      6200           400            1200           9464.4219      8184.641       66.42477       1.6339358      0            
        28   347.19884     -27986.612      6200           400            1200           9501.2819      8217.2009      66.205617      1.5987156      0            
        29   347.359       -27986.613      6200           400            1200           9540.5449      8252.0858      66.055445      1.6300944      0            
        30   347.22087     -27986.613      6200           400            1200           9582.1905      8289.2818      65.976967      1.6577065      0            
        31   346.77889     -27986.613      6200           400            1200           9626.1816      8328.7587      65.971986      1.6813013      0            
        32   346.03028     -27986.614      6200           400            1200           9672.4643      8370.4694      66.041339      1.70065        0            
        33   344.97511     -27986.613      6200           400            1200           9720.968       8414.3498      66.18486       1.7155483      0            
        34   343.61633     -27986.613      6200           400            1200           9771.6051      8460.3195      66.401369      1.7258186      0            
        35   341.95972     -27986.613      6200           400            1200           9824.2719      8508.2813      66.688678      1.7313125      0            
        36   340.01392     -27986.612      6200           400            1200           9878.8485      8558.1222      67.04363       1.7319118      0            
        37   337.79034     -27986.611      6200           400            1200           9935.1998      8609.714       67.462149      1.7275298      0            
        38   335.30308     -27986.61       6200           400            1200           9993.1761      8662.9135      67.939328      1.7181117      0            
        39   332.56879     -27986.609      6200           400            1200           10052.614      8717.5642      68.469522      1.7281404      0            
        40   329.60652     -27986.608      6200           400            1200           10113.338      8773.4968      69.046448      1.7621445      0            
        41   326.43755     -27986.606      6200           400            1200           10175.16       8830.5307      69.663327      1.7908909      0            
        42   323.08518     -27986.605      6200           400            1200           10237.883      8888.4752      70.312992      1.8141162      0            
        43   319.57446     -27986.603      6200           400            1200           10301.302      8947.1309      70.988031      1.8316009      0            
        44   315.93196     -27986.601      6200           400            1200           10365.204      9006.2913      71.680905      1.8431751      0            
        45   312.18546     -27986.599      6200           400            1200           10429.37       9065.7441      72.384067      1.8562635      0            
        46   308.36368     -27986.598      6200           400            1200           10493.578      9125.2734      73.090089      1.8621448      0            
        47   304.49596     -27986.596      6200           400            1200           10557.603      9184.6608      73.791754      1.8605784      0            
        48   300.61191     -27986.594      6200           400            1200           10621.222      9243.6873      74.482146      1.8517209      0            
        49   296.74114     -27986.592      6200           400            1200           10684.209      9302.135       75.154727      1.8491246      0            
        50   292.91294     -27986.59       6200           400            1200           10746.346      9359.7887      75.803397      1.8595341      0            
        51   289.15594     -27986.588      6200           400            1200           10807.415      9416.4375      76.422555      1.8641132      0            
        52   285.49785     -27986.587      6200           400            1200           10867.205      9471.8764      77.007123      1.894045       0            
        53   281.96518     -27986.585      6200           400            1200           10925.516      9525.9078      77.552572      1.9481868      0            
        54   278.58299     -27986.584      6200           400            1200           10982.152      9578.3428      78.054941      1.9971093      0            
        55   275.37464     -27986.582      6200           400            1200           11036.93       9629.0023      78.510837      2.0405785      0            
        56   272.36163     -27986.581      6200           400            1200           11089.678      9677.7189      78.917429      2.0783886      0            
        57   269.56339     -27986.58       6200           400            1200           11140.237      9724.3371      79.272438      2.1103651      0            
        58   266.99717     -27986.579      6200           400            1200           11188.46       9768.7148      79.574125      2.1363674      0            
        59   264.67791     -27986.578      6200           400            1200           11234.215      9810.7239      79.821268      2.1562906      0            
        60   262.61814     -27986.577      6200           400            1200           11277.386      9850.2513      80.013135      2.1700674      0            
        61   260.82799     -27986.577      6200           400            1200           11317.871      9887.1989      80.149455      2.1776689      0            
        62   259.31509     -27986.576      6200           400            1200           11355.584      9921.4845      80.230404      2.1791048      0            
        63   258.08466     -27986.576      6200           400            1200           11390.457      9953.042       80.256562      2.1744237      0            
        64   257.13947     -27986.576      6200           400            1200           11422.438      9981.8215      80.228895      2.163712       0            
        65   256.47995     -27986.576      6200           400            1200           11451.489      10007.789      80.148721      2.156281       0            
        66   256.10423     -27986.576      6200           400            1200           11477.591      10030.928      80.017679      2.1973459      0            
        67   256.00828     -27986.577      6200           400            1200           11500.741      10051.236      79.837706      2.2318924      0            
        68   256.18599     -27986.577      6200           400            1200           11520.951      10068.728      79.611007      2.2596916      0            
        69   256.62934     -27986.578      6200           400            1200           11538.25       10083.433      79.340018      2.2805677      0            
        70   257.32852     -27986.578      6200           400            1200           11552.681      10095.396      79.027383      2.294401       0            
        71   258.2721      -27986.579      6200           400            1200           11564.301      10104.674      78.675923      2.3011306      0            
        72   259.4472      -27986.58       6200           400            1200           11573.182      10111.341      78.288612      2.3007549      0            
        73   260.83964     -27986.581      6200           400            1200           11579.409      10115.481      77.868542      2.2933316      0            
        74   262.43413     -27986.582      6200           400            1200           11583.078      10117.19       77.418901      2.2789758      0            
        75   264.21445     -27986.583      6200           400            1200           11584.298      10116.577      76.942945      2.2578575      0            
        76   266.16359     -27986.584      6200           400            1200           11583.188      10113.76       76.443969      2.2301976      0            
        77   268.26397     -27986.585      6200           400            1200           11579.875      10108.865      75.925287      2.1962637      0            
        78   270.49757     -27986.586      6200           400            1200           11574.498      10102.03       75.390212      2.1563639      0            
        79   272.84607     -27986.587      6200           400            1200           11567.199      10093.395      74.842031      2.1108415      0            
        80   275.29105     -27986.588      6200           400            1200           11558.131      10083.112      74.283982      2.0600683      0            
        81   277.81411     -27986.589      6200           400            1200           11547.45       10071.333      73.719248      2.0073725      0            
        82   280.39697     -27986.59       6200           400            1200           11535.317      10058.217      73.150934      2.0149872      0            
        83   283.02163     -27986.591      6200           400            1200           11521.897      10043.927      72.582061      2.0163263      0            
        84   285.67047     -27986.592      6200           400            1200           11507.356      10028.626      72.015551      2.0114399      0            
        85   288.32635     -27986.593      6200           400            1200           11491.863      10012.479      71.454221      2.000425       0            
        86   290.97268     -27986.593      6200           400            1200           11475.588      9995.6514      70.90078       1.9834243      0            
        87   293.59352     -27986.594      6200           400            1200           11458.698      9978.3083      70.357813      1.9606235      0            
        88   296.17366     -27986.595      6200           400            1200           11441.362      9960.6127      69.827778      1.9322486      0            
        89   298.69864     -27986.596      6200           400            1200           11423.743      9942.7255      69.313018      1.8985625      0            
        90   301.15484     -27986.596      6200           400            1200           11406.005      9924.8041      68.815745      1.8976504      0            
        91   303.5295      -27986.597      6200           400            1200           11388.306      9907.0022      68.338041      1.9177994      0            
        92   305.81074     -27986.597      6200           400            1200           11370.798      9889.4685      67.88186       1.9325333      0            
        93   307.98764     -27986.598      6200           400            1200           11353.631      9872.3465      67.449023      1.9418501      0            
        94   310.0502      -27986.598      6200           400            1200           11336.947      9855.7733      67.041221      1.9457862      0            
        95   311.9894      -27986.599      6200           400            1200           11320.881      9839.8798      66.660004      1.9444149      0            
        96   313.79718     -27986.599      6200           400            1200           11305.563      9824.7893      66.306784      1.9378447      0            
        97   315.46647     -27986.599      6200           400            1200           11291.113      9810.6176      65.982832      1.9262156      0            
        98   316.99118     -27986.599      6200           400            1200           11277.644      9797.4723      65.689271      1.9096966      0            
        99   318.3662      -27986.599      6200           400            1200           11265.261      9785.4525      65.427067      1.8884814      0            
       100   319.58737     -27986.6        6200           400            1200           11254.059      9774.6484      65.197033      1.8627854      0            
Loop time of 41.2807 on 1 procs for 100 steps with 7800 atoms

Performance: 0.209 ns/day, 114.669 hours/ns, 2.422 timesteps/s, 18.895 katom-step/s
99.8% CPU use with 1 MPI tasks x no OpenMP threads

MPI task timing breakdown:
Section |  min time  |  avg time  |  max time  |%varavg| %total
---------------------------------------------------------------
Pair    | 37.571     | 37.571     | 37.571     |   0.0 | 91.01
Neigh   | 0          | 0          | 0          |   0.0 |  0.00
Comm    | 0.016935   | 0.016935   | 0.016935   |   0.0 |  0.04
Output  | 0.03464    | 0.03464    | 0.03464    |   0.0 |  0.08
Modify  | 3.6548     | 3.6548     | 3.6548     |   0.0 |  8.85
Other   |            | 0.003511   |            |       |  0.01

Nlocal:           7800 ave        7800 max        7800 min
Histogram: 1 0 0 0 0 0 0 0 0 0
Nghost:          16224 ave       16224 max       16224 min
Histogram: 1 0 0 0 0 0 0 0 0 0
Neighs:    1.33708e+06 ave 1.33708e+06 max 1.33708e+06 min
Histogram: 1 0 0 0 0 0 0 0 0 0
FullNghs:  2.67415e+06 ave 2.67415e+06 max 2.67415e+06 min
Histogram: 1 0 0 0 0 0 0 0 0 0

Total # of neighbors = 2674154
Ave neighs/atom = 342.84026
Neighbor list builds = 0
Dangerous builds = 0
Total wall time: 0:00:41
