LAMMPS (22 Jul 2025 - Development - )
Reading data file ...
  orthogonal box = (0 0 0) to (36.15 36.15 90.375)
  1 by 1 by 1 MPI processor grid
  reading atoms ...
  7800 atoms
  reading velocities ...
  7800 velocities
  read_data CPU = 0.026 seconds
ACE version: 2023.11.25
Recursive evaluator is used by ACE
Loading ../../../potentials/Cu-PBE-core-rep.ace
Total number of basis functions
	Cu: 16 (r=1) 726 (r>1)
Mapping LAMMPS atom type #1(Cu) -> ACE species type #0
Neighbor list info ...
  update: every = 1 steps, delay = 0 steps, check = yes
  max neighbors/atom: 2000, page size: 100000
  master list distance cutoff = 10
  ghost atom cutoff = 10
  binsize = 5, bins = 8 8 19
  4 neighbor lists, perpetual/occasional/extra = 4 0 0
  (1) pair eam/fs/apip, perpetual
      attributes: full, newton on
      pair build: full/bin/atomonly
      stencil: full/bin/3d
      bin: standard
  (2) pair pace/apip, perpetual, trim from (4)
      attributes: full, newton on, cut 9.4
      pair build: trim
      stencil: none
      bin: none
  (3) pair zero, perpetual, half/full from (1)
      attributes: half, newton on, cut 10
      pair build: halffull/newton
      stencil: none
      bin: none
  (4) fix lambda/la/csp/apip, perpetual
      attributes: full, newton on, cut 10
      pair build: full/bin/atomonly
      stencil: full/bin/3d
      bin: standard
Setting up Verlet run ...
  Unit style    : metal
  Current step  : 0
  Time step     : 1e-05
  eam/apip      : compute potential energies for local-averaging forces
  pace/apip     : compute potential energies for local-averaging forces
Per MPI rank memory allocation (min/avg/max) = 48.31 | 48.31 | 48.31 Mbytes
   Step         TotEng     #changedCSPpairs
         0  -27986.577608414  0            
         1  -27986.577608414  0            
         2  -27986.577608415  0            
         3  -27986.577608415  0            
         4  -27986.577608414  0            
         5  -27986.577608414  0            
         6  -27986.577608442  1            
         7  -27986.577608442  1            
         8  -27986.577608441  1            
         9  -27986.577608441  1            
        10  -27986.577620830  2            
Loop time of 4.39578 on 1 procs for 10 steps with 7800 atoms

Performance: 0.002 ns/day, 12210.514 hours/ns, 2.275 timesteps/s, 17.744 katom-step/s
99.9% CPU use with 1 MPI tasks x no OpenMP threads

MPI task timing breakdown:
Section |  min time  |  avg time  |  max time  |%varavg| %total
---------------------------------------------------------------
Pair    | 2.9518     | 2.9518     | 2.9518     |   0.0 | 67.15
Neigh   | 0          | 0          | 0          |   0.0 |  0.00
Comm    | 0.001852   | 0.001852   | 0.001852   |   0.0 |  0.04
Output  | 0.00029254 | 0.00029254 | 0.00029254 |   0.0 |  0.01
Modify  | 1.4414     | 1.4414     | 1.4414     |   0.0 | 32.79
Other   |            | 0.0003729  |            |       |  0.01

Nlocal:           7800 ave        7800 max        7800 min
Histogram: 1 0 0 0 0 0 0 0 0 0
Nghost:          16224 ave       16224 max       16224 min
Histogram: 1 0 0 0 0 0 0 0 0 0
Neighs:    1.33708e+06 ave 1.33708e+06 max 1.33708e+06 min
Histogram: 1 0 0 0 0 0 0 0 0 0
FullNghs:  2.67415e+06 ave 2.67415e+06 max 2.67415e+06 min
Histogram: 1 0 0 0 0 0 0 0 0 0

Total # of neighbors = 2674154
Ave neighs/atom = 342.84026
Neighbor list builds = 0
Dangerous builds = 0
Total wall time: 0:00:04
