LAMMPS (10 Dec 2025 - Development - 1b56d059aa)
OMP_NUM_THREADS environment is not set. Defaulting to 1 thread.
  using 1 OpenMP thread(s) per MPI task
Reading data file ...
  orthogonal box = (0 0 -1.1656272) to (36.15 36.15 362.81506)
  1 by 1 by 4 MPI processor grid
  reading atoms ...
  40200 atoms
  reading velocities ...
  40200 velocities
  read_data CPU = 0.134 seconds
39199 atoms in group group_descriptor
ACE version: 2023.11.25
Recursive evaluator is used by ACE
Loading ../../../potentials/Cu-PBE-core-rep.ace
Total number of basis functions
	Cu: 16 (r=1) 726 (r>1)
Mapping LAMMPS atom type #1(Cu) -> ACE species type #0
atomic load lambda:
	fast potential: extract eam/apip:time_per_atom
	precise potential: extract pace/apip:time_per_atom
	lambda_input: const 0
	lambda: const 0
Neighbor list info ...
  update: every = 1 steps, delay = 0 steps, check = yes
  max neighbors/atom: 2000, page size: 100000
  master list distance cutoff = 10
  ghost atom cutoff = 10
  binsize = 5, bins = 8 8 73
  4 neighbor lists, perpetual/occasional/extra = 4 0 0
  (1) pair eam/fs/apip, perpetual
      attributes: full, newton on
      pair build: full/bin/atomonly
      stencil: full/bin/3d
      bin: standard
  (2) pair pace/apip, perpetual, trim from (4)
      attributes: full, newton on, cut 9.4
      pair build: trim
      stencil: none
      bin: none
  (3) pair zero, perpetual, half/full from (1)
      attributes: half, newton on, cut 10
      pair build: halffull/newton
      stencil: none
      bin: none
  (4) fix lambda/la/csp/apip, perpetual
      attributes: full, newton on, cut 10
      pair build: full/bin/atomonly
      stencil: full/bin/3d
      bin: standard
Setting up Verlet run ...
  Unit style    : metal
  Current step  : 0
  Time step     : 0.001
  eam/apip      : compute potential energies for local-averaging forces
  pace/apip     : compute potential energies for local-averaging forces
Per MPI rank memory allocation (min/avg/max) = 59.01 | 60.08 | 61.35 Mbytes
   Step     f_weight_atom[1] f_weight_atom[2]     S/CPU     
         0   0              0              0            
        10   2.1609636e-06  0.0002015004   2.6243464    
        20   2.4768128e-06  0.00023606227  2.2460949    
        30   2.6503539e-06  0.0002454166   2.1640705    
        40   2.5859861e-06  0.00024633214  2.1907221    
        50   2.5952606e-06  0.00024785624  2.1858718    
        60   2.6066395e-06  0.00024761007  2.1836337    
        70   2.6155858e-06  0.00024844061  2.1766852    
        80   2.6580321e-06  0.00025144907  2.1304074    
        90   2.6374009e-06  0.0002539978   2.1313453    
       100   2.6382123e-06  0.00025099512  2.1535974    
Loop time of 45.226 on 4 procs for 100 steps with 40200 atoms

Performance: 0.191 ns/day, 125.628 hours/ns, 2.211 timesteps/s, 88.887 katom-step/s
99.8% CPU use with 4 MPI tasks x 1 OpenMP threads

MPI task timing breakdown:
Section |  min time  |  avg time  |  max time  |%varavg| %total
---------------------------------------------------------------
Pair    | 2.5398     | 7.4582     | 22.009     | 307.6 | 16.49
Neigh   | 1.4777     | 1.5121     | 1.5522     |   2.6 |  3.34
Comm    | 0.13342    | 5.494      | 20.022     | 358.1 | 12.15
Output  | 0.00022339 | 0.00033158 | 0.00045911 |   0.0 |  0.00
Modify  | 20.676     | 30.735     | 40.862     | 177.5 | 67.96
Other   |            | 0.02603    |            |       |  0.06

Nlocal:          10050 ave       10169 max       10000 min
Histogram: 2 1 0 0 0 0 0 0 0 1
Nghost:          18059 ave       19279 max       16908 min
Histogram: 2 0 0 0 0 0 0 0 0 2
Neighs:    1.77282e+06 ave 1.82762e+06 max 1.69559e+06 min
Histogram: 1 0 0 0 0 1 0 1 0 1
FullNghs:  3.54563e+06 ave 3.65319e+06 max 3.46439e+06 min
Histogram: 2 0 0 0 0 0 0 1 0 1

Total # of neighbors = 14182536
Ave neighs/atom = 352.7994
Neighbor list builds = 10
Dangerous builds = 0
Total wall time: 0:00:45
