LAMMPS (10 Sep 2025 - Development - 892ed7cb91-modified)
  using 1 OpenMP thread(s) per MPI task
processors      * * * map xyz

units           real
atom_style      full
boundary        p p p

read_data       initial.data
Reading data file ...
  orthogonal box = (-0.0018761415 -0.0018761415 -0.0018761415) to (24.682677 24.682677 24.682677)
  1 by 1 by 1 MPI processor grid
  reading atoms ...
  1536 atoms
  reading velocities ...
  1536 velocities
  scanning bonds ...
  2 = max bonds/atom
  scanning angles ...
  1 = max angles/atom
  orthogonal box = (-0.0018761415 -0.0018761415 -0.0018761415) to (24.682677 24.682677 24.682677)
  1 by 1 by 1 MPI processor grid
  reading bonds ...
  1024 bonds
  reading angles ...
  512 angles
Finding 1-2 1-3 1-4 neighbors ...
  special bond factors lj:    0        0        0       
  special bond factors coul:  0        0        0       
     2 = max # of 1-2 neighbors
     1 = max # of 1-3 neighbors
     1 = max # of 1-4 neighbors
     2 = max # of special neighbors
  special bonds CPU = 0.000 seconds
  read_data CPU = 0.048 seconds
#read_restart    restart.old

pair_style      mbx 9.0
pair_modify     mix arithmetic

bond_style      none
angle_style     none
dihedral_style  none
improper_style  none

pair_coeff      * * 1 h2o 1 2 2 json mbx.json

neighbor        2.0 bin
neigh_modify    every 1 delay 10

timestep        0.5

compute         mbx all pair mbx
variable        e1bpip    equal c_mbx[1]
variable        e2bpip    equal c_mbx[2]
variable        e3bpip    equal c_mbx[3]
variable        e4bpip    equal c_mbx[4]
variable        edisp     equal c_mbx[5]
variable        ebuck     equal c_mbx[6]
variable        eperm     equal c_mbx[7]
variable        eind      equal c_mbx[8]
variable        eele      equal c_mbx[9]
variable        etot      equal c_mbx[10]

fix             1 all npt temp 298 298 100 iso 1.0 1.0 1000

velocity        all create 298 428459 rot yes dist gaussian
velocity        all zero linear
velocity        all zero angular

thermo_style    custom step time temp etotal ke pe enthalpy density lx ly lz vol pxx pyy pzz press
thermo          1
thermo_modify   flush yes

fix             thermo_print all print 1 "$(step) $(0.001*time) $(temp) $(etotal) $(ke) $(pe) $(enthalpy) $(density) $(lx) $(ly) $(lz) $(vol) $(pxx) $(pyy) $(pzz) $(press)" file thermo.out screen no title "# step time temp etotal ke pe enthalpy density lx ly lz vol pxx pyy pzz press"
fix             verbose_mbx_thermo_print all print 1 "$(step) $(0.001*time) $(temp) $(etotal) $(ke) $(pe) $(enthalpy) $(density) $(lx) $(ly) $(lz) $(vol) $(pxx) $(pyy) $(pzz) $(press) $(v_e1bpip) $(v_e2bpip) $(v_e3bpip) $(v_e4bpip) $(v_edisp) $(v_ebuck) $(v_eperm) $(v_eind) $(v_eele) $(v_etot)" file mbx_thermo.out screen no title "# step time temp etotal ke pe enthalpy density lx ly lz vol pxx pyy pzz press e1bpip e2bpip e3bpip e4bpip edisp ebuck eperm eind eele etot"

dump            1 all custom 1 dump.lammpstrj id mol type q x y z
dump_modify     1 append no sort id format line "%d %d %d %8.4f %15.8f %15.8f %15.8f"

restart         10 restart.1 restart.2

run             100  upto

CITE-CITE-CITE-CITE-CITE-CITE-CITE-CITE-CITE-CITE-CITE-CITE-CITE

Your simulation uses code contributions which should be cited:

- pair mbx command:

@article{10.1063/5.0156036,
 author = {Riera, Marc and Knight, Christopher and Bull-Vulpe, Ethan F. and Zhu, Xuanyu and Agnew, Henry and Smith, Daniel G. A. and Simmonett, Andrew C. and Paesani, Francesco},
 title = "{MBX: A many-body energy and force calculator for data-driven many-body simulations}",
 journal = {The Journal of Chemical Physics},
 volume = {159},
 number = {5},
 pages = {054802},
 year = {2023},
 doi = {10.1063/5.0156036},
}

CITE-CITE-CITE-CITE-CITE-CITE-CITE-CITE-CITE-CITE-CITE-CITE-CITE

Generated 0 of 1 mixed pair_coeff terms from arithmetic mixing rule
WARNING: Bonds are defined but no bond style is set (src/force.cpp:198)
WARNING: Likewise 1-2 special neighbor interactions != 1.0 (src/force.cpp:200)
WARNING: Angles are defined but no angle style is set (src/force.cpp:203)
WARNING: Likewise 1-3 special neighbor interactions != 1.0 (src/force.cpp:205)
Neighbor list info ...
  update: every = 1 steps, delay = 10 steps, check = yes
  max neighbors/atom: 2000, page size: 100000
  master list distance cutoff = 11
  ghost atom cutoff = 11
  binsize = 5.5, bins = 5 5 5
  1 neighbor lists, perpetual/occasional/extra = 1 0 0
  (1) pair mbx, perpetual
      attributes: half, newton on
      pair build: half/bin/newton
      stencil: half/bin/3d
      bin: standard
WARNING: Inconsistent image flags
For more information see https://docs.lammps.org/err0027 (src/domain.cpp:1052)
Per MPI rank memory allocation (min/avg/max) = 9.584 | 9.584 | 9.584 Mbytes
   Step          Time           Temp          TotEng         KinEng         PotEng        Enthalpy       Density           Lx             Ly             Lz           Volume          Pxx            Pyy            Pzz           Press     
         0   0              298           -3410.4565      1363.5119     -4773.9684     -3142.8535      1.0183267      24.684553      24.684553      24.684553      15040.969      2086.5156     -456.88019      2030.1909      1219.9421    
         1   0.5            294.87095     -3410.1197      1349.1948     -4759.3145     -3163.4947      1.0183266      24.684554      24.684554      24.684554      15040.97       2193.8518      53.425599      1125.6468      1124.3081    
         2   1              287.93384     -3409.366       1317.4538     -4726.8198     -3153.0963      1.0183263      24.684557      24.684557      24.684557      15040.975      2309.1717      802.8355       392.82086      1168.276     
         3   1.5            279.61628     -3408.6752      1279.3964     -4688.0716     -3126.8164      1.0183257      24.684561      24.684561      24.684561      15040.983      2351.3331      1613.0162     -109.55861      1284.9302    
         4   2              272.45883     -3407.9319      1246.6472     -4654.5791     -3104.1603      1.0183249      24.684567      24.684567      24.684567      15040.994      2237.8092      2320.2106     -403.54705      1384.8243    
         5   2.5            268.99376     -3407.2333      1230.7926     -4638.0259     -3102.8928      1.0183239      24.684575      24.684575      24.684575      15041.009      1915.3091      2804.5503     -557.61001      1387.4165    
         6   3              271.17845     -3407.2188      1240.7888     -4648.0076     -3131.4569      1.0183226      24.684586      24.684586      24.684586      15041.028      1390.2573      3006.8532     -625.71473      1257.1319    
         7   3.5            278.64057     -3408.2405      1274.932      -4683.1725     -3179.4586      1.0183211      24.684598      24.684598      24.684598      15041.051      764.53904      2952.4257     -588.08574      1042.9597    
         8   4              287.81271     -3409.7944      1316.8995     -4726.6939     -3216.9125      1.0183194      24.684612      24.684612      24.684612      15041.076      233.81916      2746.598      -342.51942      879.29923    
         9   4.5            293.52407     -3410.9228      1343.0321     -4753.9549     -3208.2182      1.0183175      24.684627      24.684627      24.684627      15041.104      19.845713      2519.838       232.54659      924.07678    
        10   5              292.02339     -3410.9021      1336.1657     -4747.0678     -3133.4132      1.0183155      24.684643      24.684643      24.684643      15041.134      265.14915      2351.4667      1178.3717      1264.9959    
        11   5.5            283.31955     -3409.6512      1296.3409     -4705.9921     -3003.365       1.0183132      24.684662      24.684662      24.684662      15041.167      949.54743      2223.1031      2383.7803      1852.1436    
        12   6              271.44246     -3407.7613      1241.9968     -4649.758      -2859.5481      1.0183106      24.684683      24.684683      24.684683      15041.206      1878.235       2031.1485      3588.0425      2499.142     
        13   6.5            262.51882     -3406.15        1201.1663     -4607.3163     -2757.3323      1.0183076      24.684708      24.684708      24.684708      15041.251      2755.4077      1654.6595      4463.2115      2957.7596    
        14   7              261.75139     -3405.5858      1197.6548     -4603.2407     -2740.7337      1.0183039      24.684737      24.684737      24.684737      15041.305      3313.3653      1044.1297      4735.0389      3030.8446    
        15   7.5            270.82515     -3406.3875      1239.1722     -4645.5597     -2820.9994      1.0182998      24.684771      24.684771      24.684771      15041.366      3434.4454      282.61571      4288.6884      2668.5832    
        16   8              286.83845     -3408.2862      1312.4418     -4720.7279     -2968.8315      1.0182951      24.684808      24.684808      24.684808      15041.435      3203.2315     -412.41016      3219.1191      2003.3135    
        17   8.5            303.27886     -3410.4271      1387.6656     -4798.0927     -3124.7895      1.0182901      24.684849      24.684849      24.684849      15041.51       2857.345      -751.93823      1800.9263      1302.111     
        18   9              312.89416     -3411.7342      1431.6608     -4843.395      -3224.8643      1.0182848      24.684892      24.684892      24.684892      15041.588      2660.8257     -487.55418      382.31686      851.86279    
        19   9.5            311.21293     -3411.5143      1423.9683     -4835.4826     -3230.0854      1.0182793      24.684936      24.684936      24.684936      15041.668      2765.2281      463.71955     -747.78212      827.05519    
        20   10             298.8392      -3409.8045      1367.3517     -4777.1563     -3145.0116      1.0182738      24.684981      24.684981      24.684981      15041.75       3131.8844      1939.4791     -1450.1566      1207.069     
        21   10.5           281.34485     -3407.3257      1287.3056     -4694.6312     -3015.7945      1.0182679      24.685028      24.685028      24.685028      15041.836      3550.9724      3550.867      -1747.4389      1784.8002    
        22   11             266.81046     -3405.2236      1220.8029     -4626.0265     -2908.5291      1.0182618      24.685077      24.685077      24.685077      15041.927      3740.6931      4819.7946     -1767.9624      2264.1751    
        23   11.5           261.96632     -3404.5785      1198.6383     -4603.2168     -2877.2983      1.0182553      24.68513       24.68513       24.68513       15042.024      3481.5052      5383.3221     -1654.0757      2403.5839    
        24   12             268.7127      -3405.691       1229.5066     -4635.1976     -2936.7448      1.0182483      24.685187      24.685187      24.685187      15042.127      2734.1207      5147.928      -1469.0798      2137.6563    
        25   12.5           283.16022     -3407.8548      1295.6119     -4703.4667     -3054.4104      1.0182409      24.685247      24.685247      24.685247      15042.236      1682.994       4297.3142     -1146.8927      1611.1385    
        26   13             297.78639     -3409.9845      1362.5346     -4772.5191     -3167.2968      1.0182332      24.685309      24.685309      24.685309      15042.35       670.57652      3171.4124     -523.21601      1106.2576    
        27   13.5           305.01505     -3411.2144      1395.6096     -4806.824      -3211.9027      1.0182253      24.685372      24.685372      24.685372      15042.467      52.747767      2110.3714      562.46225      908.52713    
        28   14             300.31334     -3411.034       1374.0967     -4785.1307     -3152.8955      1.0182172      24.685438      24.685438      24.685438      15042.586      48.01607       1333.1202      2148.8711      1176.6691    
        29   14.5           284.0448      -3409.3354      1299.6593     -4708.9947     -2999.8766      1.0182089      24.685504      24.685504      24.685504      15042.708      643.1001       880.57335      4075.5726      1866.4154    
        30   15             261.73649     -3406.6043      1197.5867     -4604.191      -2806.3496      1.0182003      24.685574      24.685574      24.685574      15042.835      1590.948       632.16262      5985.1516      2736.0874    
        31   15.5           242.23178     -3404.0173      1108.342      -4512.3594     -2649.1883      1.0181912      24.685648      24.685648      24.685648      15042.97       2510.596       389.74939      7421.5716      3440.639     
        32   16             233.71484     -3402.9625      1069.3724     -4472.3349     -2593.8928      1.0181814      24.685727      24.685727      24.685727      15043.114      3060.9494      1.1617572      8001.4147      3687.842     
        33   16.5           239.30155     -3404.0636      1094.9346     -4498.9982     -2660.8697      1.018171       24.685811      24.685811      24.685811      15043.268      3109.0343     -529.04962      7582.6256      3387.5367    
        34   17             255.08664     -3406.6815      1167.16       -4573.8415     -2812.3892      1.0181599      24.6859        24.6859        24.6859        15043.432      2794.2557     -1003.0525      6335.2043      2708.8025    
        35   17.5           272.11352     -3409.4118      1245.0672     -4654.479      -2969.2728      1.0181484      24.685994      24.685994      24.685994      15043.603      2446.473      -1098.8197      4670.778       2006.1438    
        36   18             280.8867      -3410.9586      1285.2093     -4696.1679     -3048.0232      1.0181365      24.68609       24.68609       24.68609       15043.779      2407.5112     -517.89035      3073.0767      1654.2325    
        37   18.5           275.74148     -3410.6679      1261.6671     -4672.335      -2998.7496      1.0181242      24.686189      24.686189      24.686189      15043.96       2855.5705      857.94304      1918.8968      1877.4701    
        38   19             257.19131     -3408.6262      1176.79       -4585.4162     -2826.8873      1.0181116      24.686291      24.686291      24.686291      15044.145      3715.7115      2871.4315      1367.2301      2651.4577    
        39   19.5           231.68379     -3405.6048      1060.0792     -4465.684      -2590.8276      1.0180986      24.686396      24.686396      24.686396      15044.339      4689.7611      5102.3103      1348.5942      3713.5552    
        40   20             208.91455     -3402.9058      955.8976      -4358.8034     -2376.6949      1.0180848      24.686508      24.686508      24.686508      15044.542      5390.6721      6996.7632      1644.0297      4677.155     
        41   20.5           197.41916     -3401.8574      903.29994     -4305.1574     -2259.7727      1.0180702      24.686626      24.686626      24.686626      15044.758      5524.5087      8073.2085      2017.8761      5205.1978    
        42   21             200.27442     -3402.9548      916.36431     -4319.3191     -2269.3829      1.0180546      24.686752      24.686752      24.686752      15044.988      5036.4014      8114.383       2348.177       5166.3205    
        43   21.5           213.51604     -3405.4379      976.95191     -4382.3898     -2376.0024      1.0180381      24.686885      24.686885      24.686885      15045.232      4144.273       7243.1082      2687.5287      4691.6366    
        44   22             228.41395     -3407.9364      1045.1179     -4453.0544     -2508.2571      1.0180207      24.687026      24.687026      24.687026      15045.489      3244.1537      5837.7762      3218.684       4100.2047    
        45   22.5           235.89459     -3409.2839      1079.3459     -4488.6299     -2588.6018      1.0180026      24.687172      24.687172      24.687172      15045.757      2739.5958      4347.0917      4133.6593      3740.1156    
        46   23             230.58788     -3408.8665      1055.0649     -4463.9314     -2568.9563      1.0179838      24.687324      24.687324      24.687324      15046.035      2872.3745      3111.8141      5498.8318      3827.6735    
        47   23.5           213.05212     -3406.7456      974.82921     -4381.5748     -2451.7548      1.0179642      24.687482      24.687482      24.687482      15046.324      3620.3012      2268.2046      7167.615       4352.0403    
        48   24             189.63147     -3403.6428      867.66704     -4271.3099     -2288.6224      1.0179439      24.687647      24.687647      24.687647      15046.624      4703.0605      1755.6935      8784.9008      5081.2183    
        49   24.5           169.94523     -3400.8255      777.59178     -4178.4173     -2157.147       1.0179226      24.687819      24.687819      24.687819      15046.939      5702.0054      1406.6502      9893.5533      5667.4029    
        50   25             162.59712     -3399.628       743.97018     -4143.5982     -2124.1198      1.0179003      24.687999      24.687999      24.687999      15047.269      6254.8918      1070.213       10111.863      5812.3225    
        51   25.5           170.82463     -3400.6374      781.61551     -4182.2529     -2211.3596      1.0178769      24.688188      24.688188      24.688188      15047.614      6233.2139      717.82725      9306.7305      5419.2572    
        52   26             190.60389     -3403.2215      872.11636     -4275.3379     -2382.5774      1.0178526      24.688385      24.688385      24.688385      15047.975      5797.8419      485.69611      7668.6285      4650.7222    
        53   26.5           212.62127     -3405.8941      972.85784     -4378.752      -2560.0488      1.0178273      24.688589      24.688589      24.688589      15048.348      5299.8866      624.5483       5637.9517      3854.1289    
        54   27             227.02583     -3407.2152      1038.7665     -4445.9818     -2662.6442      1.0178014      24.688799      24.688799      24.688799      15048.731      5090.7904      1366.5836      3720.3721      3392.582     
        55   27.5           228.20967     -3406.4904      1044.1832     -4450.6737     -2644.8946      1.0177748      24.689014      24.689014      24.689014      15049.124      5346.0403      2773.2734      2290.877       3470.0636    
        56   28             217.28455     -3403.9473      994.1949      -4398.1422     -2518.0419      1.0177476      24.689234      24.689234      24.689234      15049.527      5982.331       4646.9065      1479.8073      4036.3483    
        57   28.5           201.41667     -3400.6357      921.59074     -4322.2265     -2344.3827      1.0177197      24.68946       24.68946       24.68946       15049.94       6697.4466      6559.3085      1180.2984      4812.3512    
        58   29             190.30325     -3398.1037      870.74078     -4268.8444     -2207.6847      1.0176908      24.689693      24.689693      24.689693      15050.366      7112.8999      7998.3088      1159.1869      5423.4652    
        59   29.5           191.11357     -3397.5646      874.44844     -4272.013      -2172.5412      1.017661       24.689934      24.689934      24.689934      15050.807      6956.8758      8571.9026      1214.0928      5580.957     
        60   30             204.64353     -3398.946       936.35534     -4335.3013     -2253.4875      1.0176301      24.690184      24.690184      24.690184      15051.264      6198.2268      8161.7741      1294.9506      5218.3172    
        61   30.5           225.36607     -3401.0315      1031.1723     -4432.2037     -2412.1368      1.0175983      24.690441      24.690441      24.690441      15051.734      5060.3024      6935.9597      1518.5138      4504.9253    
        62   31             244.98342     -3402.6028      1120.9323     -4523.5351     -2581.3502      1.0175657      24.690705      24.690705      24.690705      15052.217      3912.9975      5238.2991      2072.0321      3741.1096    
        63   31.5           256.43712     -3403.0029      1173.3392     -4576.3421     -2698.1637      1.0175323      24.690975      24.690975      24.690975      15052.71       3105.3222      3450.8883      3075.8845      3210.6983    
        64   32             256.44785     -3401.9779      1173.3883     -4575.3662     -2729.6758      1.0174984      24.691249      24.691249      24.691249      15053.212      2817.4447      1885.8229      4483.8797      3062.3824    
        65   32.5           246.55339     -3399.6639      1128.1158     -4527.7796     -2685.221       1.0174639      24.691528      24.691528      24.691528      15053.723      2991.968       711.42085      6059.289       3254.226     
        66   33             232.64414     -3396.708       1064.4733     -4461.1813     -2611.4254      1.0174288      24.691812      24.691812      24.691812      15054.242      3367.3081     -67.058873      7430.0656      3576.7716    
        67   33.5           222.69621     -3394.2371      1018.9562     -4413.1933     -2570.7424      1.0173931      24.692101      24.692101      24.692101      15054.771      3602.0656     -558.24086      8208.2349      3750.6866    
        68   34             223.05402     -3393.2932      1020.5934     -4413.8865     -2610.3974      1.0173567      24.692396      24.692396      24.692396      15055.31       3446.9764     -887.97833      8137.9428      3565.647     
        69   34.5           235.08535     -3394.0792      1075.6432     -4469.7224     -2736.7164      1.0173196      24.692696      24.692696      24.692696      15055.859      2878.1825     -1104.7955      7208.0323      2993.8064    
        70   35             254.42425     -3395.8411      1164.1292     -4559.9703     -2910.0289      1.0172819      24.693001      24.693001      24.693001      15056.416      2108.9507     -1138.0517      5666.4117      2212.4369    
        71   35.5           273.27484     -3397.3899      1250.3809     -4647.7708     -3063.1956      1.0172439      24.693308      24.693308      24.693308      15056.979      1475.3146     -832.48051      3922.8574      1521.8971    
        72   36             284.28139     -3397.7303      1300.7419     -4698.4722     -3133.4392      1.0172056      24.693619      24.693619      24.693619      15057.546      1267.9747     -47.180279      2389.7577      1203.5174    
        73   36.5           283.93825     -3396.4392      1299.1718     -4695.611      -3091.5589      1.017167       24.69393       24.69393       24.69393       15058.117      1596.9223      1228.5497      1339.4234      1388.2984    
        74   37             274.1478      -3393.7867      1254.3752     -4648.1619     -2955.5152      1.0171282      24.694244      24.694244      24.694244      15058.691      2343.1967      2807.5177      836.17621      1995.6302    
        75   37.5           261.34868     -3390.7388      1195.8122     -4586.5511     -2782.6046      1.017089       24.694561      24.694561      24.694561      15059.271      3211.7343      4334.077       761.12426      2768.9785    
        76   38             253.30579     -3388.6162      1159.0116     -4547.6279     -2642.7315      1.0170494      24.694883      24.694883      24.694883      15059.859      3862.4306      5412.1187      913.62103      3396.0568    
        77   38.5           254.88367     -3388.2328      1166.2313     -4554.4641     -2584.8111      1.0170091      24.695209      24.695209      24.695209      15060.455      4060.9197      5772.7917      1139.9316      3657.881     
        78   39             265.43553     -3389.2669      1214.5118     -4603.7787     -2615.0629      1.0169681      24.69554       24.69554       24.69554       15061.062      3772.7708      5386.5422      1414.8305      3524.7145    
        79   39.5           279.60402     -3390.6625      1279.3403     -4670.0029     -2699.6772      1.0169265      24.695877      24.695877      24.695877      15061.678      3155.8384      4454.6058      1826.7049      3145.7164    
        80   40             290.5419      -3391.4454      1329.3871     -4720.8324     -2786.9919      1.0168843      24.696219      24.696219      24.696219      15062.303      2470.3145      3297.1322      2487.5482      2751.665     
        81   40.5           293.19735     -3391.0958      1341.5372     -4732.6331     -2834.2493      1.0168416      24.696564      24.696564      24.696564      15062.936      1959.5513      2212.8562      3432.1026      2534.8367    
        82   41             286.24473     -3389.5717      1309.7252     -4699.2969     -2826.5376      1.0167984      24.696914      24.696914      24.696914      15063.575      1745.8702      1384.8197      4557.9933      2562.8944    
        83   41.5           272.39366     -3387.1969      1246.349      -4633.5459     -2781.7185      1.0167548      24.697267      24.697267      24.697267      15064.222      1776.6724      864.10323      5627.1637      2755.9798    
        84   42             257.30391     -3384.6263      1177.3052     -4561.9315     -2740.9065      1.0167106      24.697625      24.697625      24.697625      15064.876      1853.1303      606.05087      6330.5717      2929.9176    
        85   42.5           247.2561      -3382.8101      1131.331      -4514.1411     -2748.054       1.016666       24.697986      24.697986      24.697986      15065.538      1745.2484      520.2645       6401.4641      2888.9924    
        86   43             246.09267     -3382.365       1126.0077     -4508.3727     -2825.7156      1.0166208      24.698353      24.698353      24.698353      15066.208      1336.093       529.7455       5734.3282      2533.3889    
        87   43.5           253.25197     -3383.0637      1158.7654     -4541.8291     -2960.493       1.0165751      24.698722      24.698722      24.698722      15066.885      701.55311      621.00898      4446.7137      1923.0919    
        88   44             264.29937     -3384.174       1209.3132     -4593.4873     -3107.5229      1.0165291      24.699095      24.699095      24.699095      15067.567      78.477844      850.98899      2847.4258      1258.9642    
        89   44.5           273.2414      -3384.9186      1250.2279     -4635.1465     -3210.0384      1.0164828      24.69947       24.69947       24.69947       15068.253     -246.53892      1307.7394      1326.1882      795.79624    
        90   45             275.23655     -3384.655       1259.3568     -4644.0118     -3223.8737      1.0164364      24.699846      24.699846      24.699846      15068.94      -65.479077      2046.2323      214.06305      731.60542    
        91   45.5           268.84333     -3383.0876      1230.1043     -4613.1919     -3137.2871      1.0163899      24.700223      24.700223      24.700223      15069.63       657.29851      3024.3919     -326.43634      1118.418     
        92   46             256.97382     -3380.569       1175.7949     -4556.3639     -2977.6236      1.0163431      24.700601      24.700601      24.700601      15070.323      1762.1844      4072.4789     -334.58283      1833.3602    
        93   46.5           245.6669      -3378.1278      1124.0596     -4502.1874     -2799.8608      1.0162961      24.700982      24.700982      24.700982      15071.021      2956.95        4928.5596      7.2913979      2630.9337    
        94   47             240.77558     -3376.88        1101.6791     -4478.5591     -2660.5214      1.0162485      24.701368      24.701368      24.701368      15071.726      3941.8077      5340.193       495.16174      3259.0541    
        95   47.5           244.47861     -3377.1312      1118.6225     -4495.7537     -2591.0247      1.0162004      24.701758      24.701758      24.701758      15072.441      4534.0386      5180.3759      1014.1882      3576.2009    
        96   48             254.22747     -3378.1607      1163.2288     -4541.3896     -2587.0487      1.0161516      24.702153      24.702153      24.702153      15073.164      4721.6743      4504.729       1569.9951      3598.7995    
        97   48.5           264.76948     -3378.9732      1211.4642     -4590.4374     -2619.058       1.0161021      24.702554      24.702554      24.702554      15073.898      4621.2802      3517.9491      2230.9176      3456.7156    
        98   49             271.22191     -3379.0387      1240.9876     -4620.0264     -2653.2106      1.016052       24.70296       24.70296       24.70296       15074.641      4384.3985      2484.0165      3036.0758      3301.4969    
        99   49.5           271.02006     -3378.2852      1240.064      -4618.3492     -2668.7926      1.0160013      24.703371      24.703371      24.703371      15075.394      4117.0386      1634.2021      3929.8554      3227.032     
       100   50             264.45817     -3376.7747      1210.0398     -4586.8146     -2666.132       1.01595        24.703787      24.703787      24.703787      15076.155      3841.9663      1101.1826      4753.1527      3232.1006    
Loop time of 163.378 on 1 procs for 100 steps with 1536 atoms

Performance: 0.026 ns/day, 907.655 hours/ns, 0.612 timesteps/s, 940.152 atom-step/s
98.9% CPU use with 1 MPI tasks x 1 OpenMP threads

MPI task timing breakdown:
Section |  min time  |  avg time  |  max time  |%varavg| %total
---------------------------------------------------------------
Pair    | 162.3      | 162.3      | 162.3      |   0.0 | 99.34
Bond    | 4.2952e-05 | 4.2952e-05 | 4.2952e-05 |   0.0 |  0.00
Neigh   | 0.10999    | 0.10999    | 0.10999    |   0.0 |  0.07
Comm    | 0.010377   | 0.010377   | 0.010377   |   0.0 |  0.01
Output  | 0.42194    | 0.42194    | 0.42194    |   0.0 |  0.26
Modify  | 0.53134    | 0.53134    | 0.53134    |   0.0 |  0.33
Other   |            | 0.001761   |            |       |  0.00

Nlocal:           1536 ave        1536 max        1536 min
Histogram: 1 0 0 0 0 0 0 0 0 0
Nghost:           8814 ave        8814 max        8814 min
Histogram: 1 0 0 0 0 0 0 0 0 0
Neighs:         434190 ave      434190 max      434190 min
Histogram: 1 0 0 0 0 0 0 0 0 0

Total # of neighbors = 434190
Ave neighs/atom = 282.67578
Ave special neighs/atom = 2
Neighbor list builds = 10
Dangerous builds = 0

write_data      final.data nocoeff
System init for write_data ...
Generated 0 of 1 mixed pair_coeff terms from arithmetic mixing rule
WARNING: Bonds are defined but no bond style is set (src/force.cpp:198)
WARNING: Likewise 1-2 special neighbor interactions != 1.0 (src/force.cpp:200)
WARNING: Angles are defined but no angle style is set (src/force.cpp:203)
WARNING: Likewise 1-3 special neighbor interactions != 1.0 (src/force.cpp:205)
write_restart   restart.new
System init for write_restart ...
Generated 0 of 1 mixed pair_coeff terms from arithmetic mixing rule
WARNING: Bonds are defined but no bond style is set (src/force.cpp:198)
WARNING: Likewise 1-2 special neighbor interactions != 1.0 (src/force.cpp:200)
WARNING: Angles are defined but no angle style is set (src/force.cpp:203)
WARNING: Likewise 1-3 special neighbor interactions != 1.0 (src/force.cpp:205)

[MBX] Total MBX fix/pair time= 165.288694 seconds
[MBX] Timing Summary
[MBX] kernel                      tmin          tavg          tmax         count   %total
[MBX] -----------------------------------------------------------------------------------
[MBX] INIT                :       0.35504       0.35504       0.35504        11     0.21%
[MBX] UPDATE_XYZ          :      0.038706      0.038706      0.038706       101     0.02%
[MBX] ACCUMULATE_F        :       0.08816       0.08816       0.08816       505     0.05%
[MBX] E1B                 :       0.35357       0.35357       0.35357       101     0.21%
[MBX] E2B_LOCAL           :             0             0             0         0     0.00%
[MBX] E2B_GHOST           :          9.11          9.11          9.11       101     5.51%
[MBX] E3B_LOCAL           :             0             0             0         0     0.00%
[MBX] E3B_GHOST           :        68.084        68.084        68.084       101    41.19%
[MBX] E4B_LOCAL           :             0             0             0         0     0.00%
[MBX] E4B_GHOST           :       0.27294       0.27294       0.27294       101     0.17%
[MBX] DISP                :        7.9708        7.9708        7.9708       101     4.82%
[MBX] DISP_PME            :        2.8622        2.8622        2.8622       101     1.73%
[MBX] BUCK                :        7.0419        7.0419        7.0419       202     4.26%
[MBX] ELE                 :        68.282        68.282        68.282       101    41.31%
[MBX] INIT_FULL           :             0             0             0         0     0.00%
[MBX] UPDATE_XYZ_FULL     :             0             0             0         0     0.00%
[MBX] ACCUMULATE_F_FULL   :             0             0             0         0     0.00%
[MBX] INIT_LOCAL          :      0.072495      0.072495      0.072495        11     0.04%
[MBX] UPDATE_XYZ_LOCAL    :      0.054748      0.054748      0.054748       101     0.03%
[MBX] ACCUMULATE_F_LOCAL  :      0.040776      0.040776      0.040776       404     0.02%


[MBX] Electrostatics Summary
[MBX] kernel                      tmin          tavg          tmax         count   %total
[MBX] -----------------------------------------------------------------------------------
[MBX] ELE_PERMDIP_REAL    :        5.5552        5.5552        5.5552       101     3.36%
[MBX] ELE_PERMDIP_PME     :        2.0108        2.0108        2.0108       101     1.22%
[MBX] ELE_DIPFIELD_REAL   :        21.062        21.062        21.062      1212    12.74%
[MBX] ELE_DIPFIELD_PME    :        24.799        24.799        24.799      1212    15.00%
[MBX] ELE_GRAD_REAL       :        5.5401        5.5401        5.5401       101     3.35%
[MBX] ELE_GRAD_PME        :        6.5626        6.5626        6.5626       101     3.97%
[MBX] ELE_GRAD_FIN        :      0.092496      0.092496      0.092496       101     0.06%
[MBX] ELE_PME_SETUP       :    0.00023484    0.00023484    0.00023484      1414     0.00%
[MBX] ELE_PME_C           :        3.9436        3.9436        3.9436       202     2.39%
[MBX] ELE_PME_D           :        26.974        26.974        26.974      1313    16.32%
[MBX] ELE_PME_E           :        2.3641        2.3641        2.3641       101     1.43%
[MBX] DISP_PME_SETUP      :       0.16608       0.16608       0.16608       101     0.10%
[MBX] DISP_PME_E          :        2.5933        2.5933        2.5933       101     1.57%
[MBX] ELE_COMM_REVFOR     :      0.028783      0.028783      0.028783      1313     0.02%
[MBX] ELE_COMM_REVSET     :    0.00040262    0.00040262    0.00040262        11     0.00%
[MBX] ELE_COMM_REV        :    0.00075392    0.00075392    0.00075392      1302     0.00%
[MBX] ELE_COMM_FORSET     :     0.0017799     0.0017799     0.0017799        11     0.00%
[MBX] ELE_COMM_FOR        :      0.020153      0.020153      0.020153      1302     0.01%
Total wall time: 0:02:45
