LAMMPS (11 Feb 2026 - Development - patch_5May2020-26712-gfff3a9b6bf-modified)
units           lj
dimension       3
boundary        m m m
atom_style      hybrid bpm/sphere dipole
WARNING: Atom style hybrid defines both, per-type and per-atom masses; both must be set, but only per-atom masses will be used (../atom_vec_hybrid.cpp:132)
special_bonds   lj 0.0 1.0 1.0 coul 0.0 1.0 1.0
newton          on off
comm_modify     vel yes cutoff 2.6
region          box block -10 60 -10 30 -10 10
create_box      1 box bond/types 1 extra/bond/per/atom 2 extra/special/per/atom 4
Created orthogonal box = (-10 -10 -10) to (60 30 10)
  1 by 1 by 1 MPI processor grid

variable        Na1 equal 200
variable        Na2 equal 480

# Build a straight wire
create_atoms    1 random $(v_Na1) 54435234 box group wire1
create_atoms    1 random 200 54435234 box group wire1
Created 200 atoms
  using lattice units in orthogonal box = (-10 -10 -10) to (60 30 10)
  create_atoms CPU = 0.001 seconds
variable        x1 atom id*0.25
set             group wire1 x v_x1 y 0.0 z 0.0
Setting atom values ...
  200 settings made for x
  200 settings made for y
  200 settings made for z


# Build a coiled wire
create_atoms    1 random $(v_Na2) 54435234 box group wire2
create_atoms    1 random 480 54435234 box group wire2
Created 480 atoms
  using lattice units in orthogonal box = (-10 -10 -10) to (60 30 10)
  create_atoms CPU = 0.000 seconds
variable        x2 atom (id-$(v_Na1))*0.1
variable        x2 atom (id-200)*0.1
variable        y2 atom 2*sin((id-$(v_Na1))*0.25)+20
variable        y2 atom 2*sin((id-200)*0.25)+20
variable        z2 atom 2*cos((id-$(v_Na1))*0.25)
variable        z2 atom 2*cos((id-200)*0.25)
set             group wire2 x v_x2 y v_y2 z v_z2
Setting atom values ...
  480 settings made for x
  480 settings made for y
  480 settings made for z

# Define key groups and properties
group           end1 id $(v_Na1)
group           end1 id 200
1 atoms in group end1
group           end2 id $(v_Na1+v_Na2)
group           end2 id 680
1 atoms in group end2
group           frozen_ends id 1 $(v_Na1+1)
group           frozen_ends id 1 201
2 atoms in group frozen_ends
group           loaded_ends union end1 end2
2 atoms in group loaded_ends

set             group all quat 1 0 0 0
Setting atom values ...
  680 settings made for quat
set             group wire1 dipole 0 0 1
Setting atom values ...
  200 settings made for dipole
set             group wire2 dipole 0 0 0
Setting atom values ...
  480 settings made for dipole

velocity        all create 1e-7 1349832 # random noise to break symmetries
velocity        frozen_ends set 0.0 0.0 0.0

# Define interactions
pair_style      granular
pair_coeff      1 1 hooke 10.0 0.5 tangential linear_history 5.0 0.5 0.1

neighbor        0.3 bin
create_bonds    many wire1 wire1 1 0.0 0.3
Generated 0 of 0 mixed pair_coeff terms from geometric mixing rule
Neighbor list info ...
  update: every = 1 steps, delay = 0 steps, check = yes
  max neighbors/atom: 2000, page size: 100000
  master list distance cutoff = 1.3
  ghost atom cutoff = 2.6
  binsize = 0.65, bins = 108 62 31
  2 neighbor lists, perpetual/occasional/extra = 1 1 0
  (1) command create_bonds, occasional
      attributes: full, newton on
      pair build: full/bin
      stencil: full/bin/3d
      bin: standard
  (2) pair granular, perpetual
      attributes: half, newton on, size, history
      pair build: half/size/bin/newton
      stencil: half/bin/3d
      bin: standard
Added 199 bonds, new total = 199
Finding 1-2 1-3 1-4 neighbors ...
  special bond factors lj:    0        1        1       
  special bond factors coul:  0        1        1       
     2 = max # of 1-2 neighbors
     9 = max # of special neighbors
  special bonds CPU = 0.000 seconds
create_bonds    many wire2 wire2 1 0.0 0.9
Generated 0 of 0 mixed pair_coeff terms from geometric mixing rule
WARNING: Bonds are defined but no bond style is set (../force.cpp:198)
WARNING: Likewise 1-2 special neighbor interactions != 1.0 (../force.cpp:200)
Neighbor list info ...
  update: every = 1 steps, delay = 0 steps, check = yes
  max neighbors/atom: 2000, page size: 100000
  master list distance cutoff = 1.3
  ghost atom cutoff = 2.6
  binsize = 0.65, bins = 108 62 31
  2 neighbor lists, perpetual/occasional/extra = 1 1 0
  (1) command create_bonds, occasional
      attributes: full, newton on
      pair build: full/bin
      stencil: full/bin/3d
      bin: standard
  (2) pair granular, perpetual
      attributes: half, newton on, size, history
      pair build: half/size/bin/newton
      stencil: half/bin/3d
      bin: standard
Added 479 bonds, new total = 678
Finding 1-2 1-3 1-4 neighbors ...
  special bond factors lj:    0        1        1       
  special bond factors coul:  0        1        1       
     2 = max # of 1-2 neighbors
     9 = max # of special neighbors
  special bonds CPU = 0.000 seconds
special_bonds   lj 0.0 0.0 0.0 coul 1.0 1.0 1.0
Finding 1-2 1-3 1-4 neighbors ...
  special bond factors lj:    0        0        0       
  special bond factors coul:  1        1        1       
     2 = max # of 1-2 neighbors
     2 = max # of 1-3 neighbors
     4 = max # of 1-4 neighbors
     9 = max # of special neighbors
  special bonds CPU = 0.000 seconds

bond_style      bpm/rotational smooth no break no
bond_coeff      1 1.0 0.1 0.1 0.1 -1 -1 -1 -1 0.5 0.5 0.05 0.05

# Control simulation
fix             1 all nve/bpm/sphere update dipole
#   dipole only used for tracking/visualizing orientation

fix             2 frozen_ends settorque/atom 0.0 0.0 0.0
fix             3 frozen_ends setforce 0.0 0.0 0.0
fix             4 loaded_ends settorque/atom 0.0 0.0 0.0
fix             5 loaded_ends setforce 0.0 0.0 0.0

fix             6 end1 move transrot -0.001 0 0 0 0 0 1 0 0 1600
fix             7 end2 move linear -0.001 0.0 0.0

fix             8 all viscous 5e-5 #small damping to accelerate decay of global modes

timestep        0.1
thermo          100
thermo_style    custom step ke pe pxx pyy pzz

compute         quat all property/atom quatw quati quatj quatk
compute         tq all property/atom tqx tqy tqz

dump            atomDump all custom 400 dump id radius xs ys zs c_quat[*] mux muy muz

run             200000

CITE-CITE-CITE-CITE-CITE-CITE-CITE-CITE-CITE-CITE-CITE-CITE-CITE

Your simulation uses code contributions which should be cited:

- BPM bond style: https://doi.org/10.1039/D3SM01373A

@Article{Clemmer2024,
 author =  {Clemmer, Joel T. and Monti, Joseph M. and Lechman, Jeremy B.},
 title =   {A soft departure from jamming: the compaction of deformable
            granular matter under high pressures},
 journal = {Soft Matter},
 year =    2024,
 volume =  20,
 number =  8,
 pages =   {1702--1718}
}

CITE-CITE-CITE-CITE-CITE-CITE-CITE-CITE-CITE-CITE-CITE-CITE-CITE

Generated 0 of 0 mixed pair_coeff terms from geometric mixing rule
WARNING: One or more atoms are time integrated more than once
For more information see https://docs.lammps.org/err0032 (../modify.cpp:300)
Neighbor list info ...
  update: every = 1 steps, delay = 0 steps, check = yes
  max neighbors/atom: 2000, page size: 100000
  master list distance cutoff = 1.3
  ghost atom cutoff = 2.6
  binsize = 0.65, bins = 108 62 31
  1 neighbor lists, perpetual/occasional/extra = 1 0 0
  (1) pair granular, perpetual
      attributes: half, newton on, size, history
      pair build: half/size/bin/newton
      stencil: half/bin/3d
      bin: standard
Per MPI rank memory allocation (min/avg/max) = 18.21 | 18.21 | 18.21 Mbytes
   Step         KinEng         PotEng          Pxx            Pyy            Pzz      
         0   1.495337e-07   8.0251359e-19  2.7958929e-09  1.8240959e-08 -1.1050182e-08
       100   7.2141981e-08  2.4235335e-08  6.0411591e-06  8.9617413e-09 -1.7772219e-08
       200   5.8103333e-08  5.1200286e-08  1.1099727e-05  7.667459e-09   9.3673579e-10
       300   2.0247675e-08  8.1955766e-08  1.6866743e-05 -7.4201875e-09 -1.5037837e-09
       400   8.0467077e-08  1.1583538e-07  2.2976958e-05  1.0393566e-09  6.2286264e-09
       500   4.8208477e-08  1.7570795e-07  2.8444431e-05 -6.7367102e-11 -4.7239615e-09
       600   5.2152467e-08  2.5836918e-07  3.3398678e-05  5.1462837e-09 -1.1134149e-09
       700   1.9522168e-07  3.4236871e-07  3.8162128e-05  3.2761855e-11  1.3091206e-09
       800   5.3176861e-07  5.1465747e-07  3.9143591e-05  8.6616191e-09  1.7413742e-08
       900   1.7272852e-06  1.0729139e-06  2.4321866e-05  2.0247546e-08  3.1924077e-08
      1000   1.6660126e-06  1.61423e-06    1.081276e-07   3.0261354e-08  5.1557009e-08
      1100   9.0486553e-07  2.1874709e-06  3.4619448e-07  2.5619294e-08  4.1043319e-08
      1200   6.6864407e-07  2.357718e-06   1.5142474e-06  2.3549619e-08  5.7356528e-08
      1300   6.9724911e-07  2.2344062e-06  9.0538828e-07  1.9959119e-08  4.8260129e-08
      1400   9.043796e-07   1.9113709e-06  1.1427992e-06  2.7386668e-08  4.4259083e-08
      1500   9.1119944e-07  1.601339e-06   7.7323466e-06  6.5366712e-08  6.7818811e-08
      1600   1.0766858e-06  1.5912688e-06  2.550754e-07   2.3904588e-08  2.7938815e-08
      1700   9.0607137e-07  1.7193068e-06  6.1138139e-06  3.2012777e-08  4.0275784e-08
      1800   8.352203e-07   1.9280554e-06  3.9542064e-07  2.4920074e-08  3.1184108e-08
      1900   7.5761983e-07  1.9329375e-06  4.4703689e-07  2.5725967e-08  3.303944e-08 
      2000   8.4660971e-07  1.8401205e-06  3.4054928e-06  4.2918509e-08  4.3028035e-08
      2100   8.1375828e-07  1.7598842e-06  7.9442197e-06  6.3432923e-08  5.5610092e-08
      2200   8.7513745e-07  1.8502256e-06  3.099079e-06   4.2216127e-08  3.7675384e-08
      2300   7.2322174e-07  1.9137911e-06  6.1420504e-07  3.2823869e-08  2.4919273e-08
      2400   6.0755314e-07  2.0051604e-06  6.2009936e-07  3.7421724e-08  2.5088639e-08
      2500   5.5860936e-07  2.0603426e-06  3.4762607e-07  3.2915989e-08  2.3665576e-08
      2600   5.0100672e-07  2.1014626e-06  2.9716187e-06  5.0453646e-08  3.0904638e-08
      2700   5.1115032e-07  2.175354e-06   6.3386039e-06  6.431762e-08   4.1597097e-08
      2800   5.0645705e-07  2.3162788e-06  3.8838108e-06  6.0013689e-08  3.0812902e-08
      2900   4.8394228e-07  2.2630397e-06  5.3910502e-07  2.9504631e-08  2.7389472e-08
      3000   5.5209565e-07  2.2152983e-06  2.9237501e-06  5.5498509e-08  3.8588021e-08
      3100   5.8674268e-07  2.2199439e-06  3.8836388e-06  5.894663e-08   4.5032989e-08
      3200   6.2368166e-07  2.2550708e-06  5.5516993e-07  2.9559798e-08  2.6137487e-08
      3300   5.7586774e-07  2.2845895e-06  4.1825462e-07  3.1304979e-08  2.7316351e-08
      3400   5.3463513e-07  2.3467008e-06  1.392887e-06   4.0712499e-08  3.2168911e-08
      3500   5.2529417e-07  2.3883016e-06  2.3392662e-06  3.7876811e-08  3.4597558e-08
      3600   5.7703177e-07  2.4502872e-06  4.544235e-06   5.5481925e-08  5.3670825e-08
      3700   5.680463e-07   2.541611e-06   2.2238576e-06  3.9643781e-08  4.218104e-08 
      3800   6.0134727e-07  2.5607415e-06  1.38244e-06    2.9438708e-08  4.3466037e-08
      3900   6.4048e-07     2.5521115e-06  2.2756745e-06  3.3305818e-08  4.892604e-08 
      4000   6.8513351e-07  2.5704635e-06  2.8574932e-06  3.7434391e-08  5.6599242e-08
      4100   7.3740204e-07  2.5800488e-06  1.3161618e-06  3.0657558e-08  5.2371581e-08
      4200   7.2565665e-07  2.5955146e-06  9.1769059e-07  3.0755332e-08  4.4214188e-08
      4300   7.1850672e-07  2.6314275e-06  5.0701583e-07  2.449246e-08   3.595627e-08 
      4400   6.7930144e-07  2.6895793e-06  5.5962413e-07  2.5324152e-08  3.933813e-08 
      4500   6.4297371e-07  2.7644727e-06  7.2448665e-07  2.6182702e-08  4.3317112e-08
      4600   6.020901e-07   2.8580407e-06  1.698043e-06   2.9482121e-08  5.1762272e-08
      4700   5.8449854e-07  2.9823283e-06  2.4642944e-06  3.0273184e-08  6.353051e-08 
      4800   5.5148004e-07  3.0848663e-06  1.406562e-06   2.5577429e-08  5.2495847e-08
      4900   5.5688401e-07  3.1383852e-06  1.6103495e-06  2.7998012e-08  5.5714212e-08
      5000   5.9617336e-07  3.1923561e-06  2.3340296e-06  2.9514015e-08  6.5497737e-08
      5100   6.4999263e-07  3.2334187e-06  2.1722171e-06  2.9407804e-08  6.178335e-08 
      5200   7.1191841e-07  3.2521749e-06  6.9241787e-07  2.2148217e-08  4.5448915e-08
      5300   7.3288934e-07  3.2584746e-06  5.7056833e-07  2.3574556e-08  4.4631108e-08
      5400   7.6700525e-07  3.2950306e-06  1.3871418e-06  2.9433335e-08  5.384448e-08 
      5500   7.6951542e-07  3.3503645e-06  9.6004994e-07  2.5727775e-08  4.6953716e-08
      5600   7.5817377e-07  3.407828e-06   6.6095065e-07  2.6939334e-08  4.2351297e-08
      5700   7.5222285e-07  3.4793173e-06  1.1848799e-06  2.9719996e-08  5.0819078e-08
      5800   7.4749793e-07  3.5573031e-06  1.9576027e-06  3.5963434e-08  6.2477267e-08
      5900   7.7028455e-07  3.637921e-06   1.386102e-06   3.0613056e-08  5.4379983e-08
      6000   7.8428248e-07  3.6863326e-06  8.1117092e-07  2.502847e-08   4.8532231e-08
      6100   8.2287144e-07  3.7296329e-06  1.2365232e-06  2.9132e-08     5.5780383e-08
      6200   8.6813803e-07  3.7735336e-06  1.045753e-06   2.8889077e-08  5.2796145e-08
      6300   9.0253127e-07  3.8038197e-06  1.599974e-07   2.2980155e-08  3.8879815e-08
      6400   9.2089059e-07  3.8487433e-06  5.7318091e-08  2.2508105e-08  3.6085841e-08
      6500   9.2669071e-07  3.9105959e-06  1.1441648e-07  2.3161772e-08  3.519713e-08 
      6600   9.0360652e-07  3.9948252e-06  2.6081563e-07  2.3047768e-08  3.9809392e-08
      6700   8.604702e-07   4.1002895e-06  9.8324016e-09  1.9734812e-08  3.6335897e-08
      6800   8.0057867e-07  4.2241042e-06  1.2096917e-08  1.9804232e-08  3.617358e-08 
      6900   7.3732608e-07  4.3522901e-06  2.1307762e-07  2.344186e-08   3.7319438e-08
      7000   6.8110379e-07  4.4776173e-06  9.2609346e-08  2.1998432e-08  3.5314866e-08
      7100   6.3061219e-07  4.5938448e-06  1.1862352e-06  3.015892e-08   5.9060179e-08
      7200   6.3623825e-07  4.7314946e-06  3.461579e-06   5.8354272e-08  9.66016e-08  
      7300   5.913518e-07   4.8892188e-06  7.2389949e-07  3.1114096e-08  4.4150366e-08
      7400   5.3911491e-07  5.0288319e-06  7.4708965e-07  2.3516448e-08  5.273638e-08 
      7500   5.1724794e-07  5.168036e-06   7.0630047e-07  2.2519683e-08  5.2858412e-08
      7600   5.0046761e-07  5.2840306e-06  4.7451596e-07  2.4605725e-08  4.7084499e-08
      7700   4.934429e-07   5.3923025e-06  2.6195424e-06  5.6161317e-08  8.0806779e-08
      7800   5.2452075e-07  5.5101453e-06  1.7439865e-06  3.7595286e-08  7.0743412e-08
      7900   5.3188995e-07  5.605557e-06   2.9469698e-08  2.2598398e-08  3.5345396e-08
      8000   5.4167572e-07  5.6817807e-06  3.0415231e-07  2.4266199e-08  4.3769345e-08
      8100   5.8809459e-07  5.7461789e-06  1.577996e-06   3.7389223e-08  6.7179102e-08
      8200   6.3058922e-07  5.8122725e-06  1.5876376e-06  4.0317758e-08  7.1653225e-08
      8300   6.8450632e-07  5.8723698e-06  4.0872113e-07  2.3724307e-08  4.8896473e-08
      8400   7.1690136e-07  5.9240576e-06  2.1580415e-08  2.3951963e-08  3.504914e-08 
      8500   7.6175599e-07  5.9727168e-06  1.0080106e-06  3.8429333e-08  5.8306533e-08
      8600   8.1101357e-07  6.0351248e-06  1.0633688e-06  3.7267437e-08  6.0973159e-08
      8700   8.4865454e-07  6.102618e-06   6.669176e-08   2.3528826e-08  3.588807e-08 
      8800   8.6340607e-07  6.1761935e-06  1.5641008e-07  2.3695811e-08  4.0226503e-08
      8900   8.8748231e-07  6.2587766e-06  2.7321895e-07  2.7796749e-08  4.2866468e-08
      9000   8.9829823e-07  6.3497114e-06  2.527631e-07   2.6551806e-08  4.1715395e-08
      9100   9.0266535e-07  6.4467388e-06  3.4887459e-07  2.7490995e-08  4.3280867e-08
      9200   8.9691921e-07  6.5575061e-06  2.8555369e-07  2.7524083e-08  4.4258355e-08
      9300   8.8422123e-07  6.6776792e-06  2.3975868e-07  2.4716155e-08  4.1250607e-08
      9400   8.5911336e-07  6.8099564e-06  5.5276133e-07  2.7858926e-08  5.1580865e-08
      9500   8.2061612e-07  6.9486609e-06  3.2178748e-07  2.5132705e-08  4.2376141e-08
      9600   7.7835144e-07  7.0927422e-06  4.6716968e-07  2.6037817e-08  4.7599392e-08
      9700   7.3220985e-07  7.2466989e-06  7.9586842e-07  2.8564313e-08  5.4148647e-08
      9800   6.9420827e-07  7.4052229e-06  8.237122e-07   2.8140494e-08  5.5419157e-08
      9900   6.5241716e-07  7.5570549e-06  8.4331305e-07  2.863615e-08   6.0704338e-08
     10000   6.2146121e-07  7.705808e-06   1.084506e-06   3.3046427e-08  6.4597692e-08
     10100   6.0560605e-07  7.8566781e-06  1.2457161e-06  3.2375972e-08  7.0706682e-08
     10200   5.9325689e-07  8.0043333e-06  9.9012219e-07  2.9135071e-08  6.3401039e-08
     10300   5.8752383e-07  8.1420961e-06  1.0543606e-06  3.1742136e-08  6.5853497e-08
     10400   5.8875593e-07  8.2803166e-06  1.3219406e-06  3.6443017e-08  7.4461035e-08
     10500   6.0059559e-07  8.4158101e-06  1.1600903e-06  3.3314967e-08  6.8776433e-08
     10600   6.1015663e-07  8.5408363e-06  9.4386216e-07  2.9730804e-08  6.5362826e-08
     10700   6.233472e-07   8.6628271e-06  1.1013196e-06  3.1925443e-08  6.6003927e-08
     10800   6.4807574e-07  8.7828385e-06  1.2650627e-06  3.4298115e-08  7.3608251e-08
     10900   6.7338897e-07  8.892959e-06   1.0288095e-06  3.1320625e-08  6.8903077e-08
     11000   7.0155478e-07  8.991276e-06   9.4188556e-07  3.0646491e-08  6.442316e-08 
     11100   7.3512718e-07  9.0928015e-06  1.0995967e-06  3.2775169e-08  6.956404e-08 
     11200   7.7477887e-07  9.1903661e-06  9.4960102e-07  3.1615774e-08  6.4863759e-08
     11300   8.131348e-07   9.2795954e-06  7.7809041e-07  3.207097e-08   6.4647459e-08
     11400   8.5289497e-07  9.3720675e-06  8.64344e-07    3.4358668e-08  6.7605362e-08
     11500   8.9905803e-07  9.4650307e-06  7.9907095e-07  3.3748928e-08  6.5909167e-08
     11600   9.4129849e-07  9.5581385e-06  5.2670815e-07  2.9810965e-08  5.8747385e-08
     11700   9.8172366e-07  9.6501993e-06  4.759399e-07   2.9996334e-08  5.71691e-08  
     11800   1.0238551e-06  9.7465417e-06  5.2367507e-07  3.0577977e-08  6.1240463e-08
     11900   1.0669091e-06  9.8404838e-06  2.8932923e-07  2.7288277e-08  5.4221299e-08
     12000   1.1068114e-06  9.9341502e-06  2.5764956e-07  2.6616461e-08  5.4063654e-08
     12100   1.148508e-06   1.0027425e-05  2.2172932e-07  2.5816717e-08  5.2477171e-08
     12200   1.1897592e-06  1.0117041e-05  1.7382395e-07  2.5977039e-08  5.0654695e-08
     12300   1.2313379e-06  1.0205271e-05  1.9195734e-07  2.6190698e-08  5.2178403e-08
     12400   1.2720792e-06  1.0291253e-05  1.1578043e-07  2.5654538e-08  4.7899672e-08
     12500   1.3095371e-06  1.0379391e-05  1.0921373e-07  2.5315994e-08  4.6752185e-08
     12600   1.3430384e-06  1.0471752e-05  5.7518644e-08  2.4769479e-08  4.2716042e-08
     12700   1.3689568e-06  1.057151e-05   4.7016343e-08  2.469061e-08   4.0313982e-08
     12800   1.3859747e-06  1.068236e-05   5.1348413e-08  2.4629749e-08  3.9127016e-08
     12900   1.3907542e-06  1.0808005e-05  7.1825157e-08  2.4758491e-08  3.9486069e-08
     13000   1.3812396e-06  1.0951371e-05  1.0099155e-07  2.5171351e-08  4.1002332e-08
     13100   1.3575388e-06  1.1113385e-05  1.363991e-07   2.5436546e-08  4.3233165e-08
     13200   1.3199045e-06  1.1292452e-05  1.7518951e-07  2.6044028e-08  4.5107119e-08
     13300   1.2708775e-06  1.1485321e-05  2.1349875e-07  2.7107583e-08  4.6789476e-08
     13400   1.2142147e-06  1.168764e-05   2.4809341e-07  2.8184697e-08  4.833853e-08 
     13500   1.1538478e-06  1.1893896e-05  2.7496123e-07  2.9162172e-08  4.936558e-08 
     13600   1.0959676e-06  1.2097641e-05  2.894615e-07   2.9897291e-08  5.0095806e-08
     13700   1.0456724e-06  1.2292738e-05  2.880027e-07   2.9968164e-08  5.0048571e-08
     13800   1.0078472e-06  1.2474785e-05  2.6678236e-07  2.9488914e-08  4.936218e-08 
     13900   9.8539918e-07  1.264177e-05   2.4268042e-07  2.8406876e-08  4.7637395e-08
     14000   9.8785875e-07  1.2794738e-05  5.8196534e-07  3.0715321e-08  5.7024531e-08
     14100   1.0019517e-06  1.2936276e-05  2.6355521e-07  2.880456e-08   4.9219821e-08
     14200   1.009279e-06   1.3070872e-05  9.4374396e-07  3.5643152e-08  8.1704104e-08
     14300   1.0046937e-06  1.3212777e-05  2.8051943e-06  7.0468664e-08  1.5075971e-07
     14400   9.913208e-07   1.3387775e-05  4.5228325e-06  1.0057199e-07  2.6187397e-07
     14500   1.0473915e-06  1.3583805e-05  3.520631e-07   2.7456387e-08  5.5130537e-08
     14600   1.0133105e-06  1.3775095e-05  4.8032234e-08  2.0120713e-08  4.0359899e-08
     14700   9.9868165e-07  1.3952549e-05  8.1109893e-08  2.0599461e-08  4.1844211e-08
     14800   1.00182e-06    1.4113387e-05  8.8629896e-08  2.0652656e-08  4.1677645e-08
     14900   1.0187857e-06  1.4258267e-05  6.8845558e-08  2.0704103e-08  4.0319956e-08
     15000   1.0448623e-06  1.4391641e-05  9.7689218e-08  2.0889268e-08  4.2183453e-08
     15100   1.0638072e-06  1.4522464e-05  1.9243526e-06  5.1370311e-08  1.218811e-07 
     15200   1.0991027e-06  1.465621e-05   2.0468315e-07  2.1972493e-08  5.0175012e-08
     15300   1.1327242e-06  1.4796999e-05  1.7676874e-06  3.2431626e-08  1.2473364e-07
     15400   1.2151369e-06  1.4950308e-05 -2.4408992e-08  1.7820002e-08  3.9218838e-08
     15500   1.2087055e-06  1.511224e-05   2.1522741e-08  1.6292846e-08  4.365753e-08 
     15600   1.2004229e-06  1.5286262e-05  8.0563394e-08  1.8280398e-08  4.5927227e-08
     15700   1.1772195e-06  1.5470723e-05  8.1521899e-08  1.8135844e-08  4.7461457e-08
     15800   1.1494407e-06  1.5665581e-05  1.1231421e-07  1.7780865e-08  4.8080304e-08
     15900   1.1126482e-06  1.5871874e-05  1.3941606e-07  1.9288279e-08  4.8045246e-08
     16000   1.067444e-06   1.6089724e-05  1.6280192e-07  1.8064903e-08  5.0495669e-08
     16100   1.0174218e-06  1.6317305e-05  1.811547e-07   2.0342781e-08  5.0156661e-08
     16200   9.6230642e-07  1.6550925e-05  1.9647837e-07  1.9386312e-08  5.0477142e-08
     16300   9.0690521e-07  1.6787775e-05  2.0452431e-07  2.0631192e-08  4.9073636e-08
     16400   8.5278821e-07  1.7023088e-05  2.0471542e-07  2.039256e-08   4.7920798e-08
     16500   8.0571275e-07  1.7251256e-05  1.9315107e-07  1.9893227e-08  4.7833605e-08
     16600   7.6731816e-07  1.746866e-05   1.6957799e-07  2.0467096e-08  4.6671116e-08
     16700   7.3971379e-07  1.7674664e-05  1.3676903e-07  1.9057767e-08  4.4412584e-08
     16800   7.2131401e-07  1.7870793e-05  9.122481e-08   1.9653689e-08  4.0987718e-08
     16900   7.1382198e-07  1.8057871e-05  9.3076809e-08  1.9122029e-08  4.2341112e-08
     17000   7.1548178e-07  1.8237851e-05  2.9757968e-07  2.5586725e-08  5.7218336e-08
     17100   7.3509472e-07  1.8415844e-05  1.2803163e-06  3.6879142e-08  1.0737922e-07
     17200   7.0606902e-07  1.8608445e-05  3.9003386e-06  8.5644654e-08  2.2426232e-07
     17300   7.6545766e-07  1.8805842e-05  7.7260029e-07  3.4891935e-08  8.2636477e-08
     17400   7.4967691e-07  1.901238e-05   9.9425458e-10  2.1519539e-08  3.4726176e-08
     17500   7.4350205e-07  1.9216348e-05  3.4831915e-08  2.1027424e-08  3.8199563e-08
     17600   7.4840042e-07  1.9411553e-05  5.56434e-08    2.2978441e-08  3.7592622e-08
     17700   7.6600444e-07  1.9598206e-05  7.0658558e-08  2.2701298e-08  3.7422308e-08
     17800   7.9286031e-07  1.9777561e-05  1.3002771e-07  2.402865e-08   4.1212729e-08
     17900   8.2436778e-07  1.9951958e-05  9.3275736e-08  2.2344167e-08  4.0290233e-08
     18000   8.5507271e-07  2.0123238e-05  1.5161715e-07  2.3103594e-08  4.5397804e-08
     18100   8.9047122e-07  2.0292424e-05  9.0953356e-08  2.1603029e-08  3.9199867e-08
     18200   9.1906259e-07  2.0462083e-05  1.0142793e-07  2.2043044e-08  3.7950894e-08
     18300   9.4404371e-07  2.0634976e-05  1.07451e-07    2.3100598e-08  3.6928871e-08
     18400   9.6514291e-07  2.081186e-05   1.2016392e-07  2.3592649e-08  3.7969981e-08
     18500   9.8308648e-07  2.0992388e-05  1.3596616e-07  2.3920804e-08  3.9267588e-08
     18600   9.9944279e-07  2.1176009e-05  1.5354864e-07  2.3539286e-08  4.0824844e-08
     18700   1.0147975e-06  2.1362341e-05  1.7060085e-07  2.3752299e-08  4.1569716e-08
     18800   1.0291384e-06  2.1551974e-05  1.8800623e-07  2.3708839e-08  4.2190142e-08
     18900   1.0409983e-06  2.1746207e-05  2.0142625e-07  2.3880276e-08  4.3400657e-08
     19000   1.0507815e-06  2.1944946e-05  2.1135662e-07  2.4046533e-08  4.3571849e-08
     19100   1.0577977e-06  2.214749e-05   2.1511127e-07  2.3656222e-08  4.4123635e-08
     19200   1.061221e-06   2.2353604e-05  2.1061103e-07  2.3289244e-08  4.4271178e-08
     19300   1.0627099e-06  2.256165e-05   1.961825e-07   2.2570504e-08  4.4302516e-08
     19400   1.0655471e-06  2.2768416e-05  1.6822105e-07  2.2258063e-08  4.3103934e-08
     19500   1.072495e-06   2.297067e-05   1.3333406e-07  2.1935869e-08  4.0723411e-08
     19600   1.0991382e-06  2.316898e-05   7.0226037e-07  3.7317549e-08  8.2099118e-08
     19700   1.1168751e-06  2.3367496e-05  2.6776948e-07  2.7958229e-08  4.907826e-08 
     19800   1.1213446e-06  2.3565819e-05  4.758888e-07   3.5479585e-08  5.7341188e-08
     19900   1.1446169e-06  2.376931e-05   1.2672753e-06  6.2095119e-08  9.1642873e-08
     20000   1.1293952e-06  2.3979163e-05  3.123943e-06   1.2869117e-07  1.7342558e-07
     20100   1.1877068e-06  2.4197445e-05  3.5704034e-07  4.4558839e-08  5.9102962e-08
     20200   1.1741554e-06  2.4422947e-05  1.2635696e-08  2.1580249e-08  3.0885951e-08
     20300   1.1761826e-06  2.4639938e-05  2.4626862e-08  2.2715564e-08  3.0371097e-08
     20400   1.1914079e-06  2.4846474e-05  2.3997383e-07  3.3366502e-08  4.5836594e-08
     20500   1.2543787e-06  2.5052127e-05  1.7353934e-07  2.5577063e-08  3.8441278e-08
     20600   1.2810174e-06  2.5251827e-05  6.6105522e-08  2.5957196e-08  3.1707264e-08
     20700   1.3180769e-06  2.5440545e-05  2.796525e-08   2.3192699e-08  2.9885855e-08
     20800   1.3865517e-06  2.5620882e-05  6.7501701e-07  5.1856698e-08  7.324388e-08 
     20900   1.4433411e-06  2.5797452e-05  2.8357664e-07  3.8234345e-08  4.931059e-08 
     21000   1.4976872e-06  2.5968022e-05  6.661949e-07   3.8710385e-08  5.1798453e-08
     21100   1.560579e-06   2.6137466e-05  6.0178825e-07  6.1099287e-08  6.9299491e-08
     21200   1.6244178e-06  2.6308496e-05  7.8311353e-08  2.5541218e-08  3.204238e-08 
     21300   1.6726419e-06  2.6482707e-05 -2.0083945e-08  2.2882682e-08  2.3440869e-08
     21400   1.7148017e-06  2.6663894e-05  1.6642049e-08  2.4025741e-08  2.3460072e-08
     21500   1.7538968e-06  2.6855868e-05  2.5589965e-08  2.5764443e-08  2.396377e-08 
     21600   1.7782113e-06  2.706121e-05   5.6877444e-08  2.7636278e-08  2.572179e-08 
     21700   1.792337e-06   2.7281547e-05  9.6996567e-08  3.0226949e-08  2.6744593e-08
     21800   1.794749e-06   2.7517577e-05  1.4327794e-07  3.3170938e-08  2.8480891e-08
     21900   1.7839079e-06  2.7769256e-05  1.9559659e-07  3.6546701e-08  2.9944374e-08
     22000   1.760289e-06   2.8035331e-05  2.5342446e-07  3.9122347e-08  3.1026639e-08
     22100   1.7222537e-06  2.831366e-05   3.1228956e-07  4.154371e-08   3.3103629e-08
     22200   1.6722659e-06  2.8601196e-05  3.7213154e-07  4.3272934e-08  3.4021553e-08
     22300   1.6130243e-06  2.8894422e-05  4.2767446e-07  4.5023695e-08  3.5663739e-08
     22400   1.5477599e-06  2.918942e-05   4.7720357e-07  4.7025616e-08  3.6780708e-08
     22500   1.4822813e-06  2.9482e-05     5.1817153e-07  4.9208687e-08  3.7367838e-08
     22600   1.4205163e-06  2.9768384e-05  5.4780444e-07  5.1192256e-08  3.7854664e-08
     22700   1.3667456e-06  3.0046167e-05  5.642859e-07   5.2931809e-08  3.7496837e-08
     22800   1.3233037e-06  3.031467e-05   5.6485303e-07  5.3849973e-08  3.7489127e-08
     22900   1.2902001e-06  3.057454e-05   5.4950001e-07  5.3210678e-08  3.6882973e-08
     23000   1.2681931e-06  3.0827066e-05  5.1665e-07     5.2043234e-08  3.5353944e-08
     23100   1.255556e-06   3.107431e-05   4.6749313e-07  4.9314122e-08  3.2787107e-08
     23200   1.2493313e-06  3.1319475e-05  4.027068e-07   4.5824918e-08  2.9041477e-08
     23300   1.2454054e-06  3.1566352e-05  3.245836e-07   4.1149883e-08  2.4945572e-08
     23400   1.2400372e-06  3.1818248e-05  2.5183359e-07  3.5477913e-08  2.2491427e-08
     23500   1.2293837e-06  3.2077881e-05  2.8601001e-07  4.2471791e-08  3.158254e-08 
     23600   1.2104415e-06  3.2346427e-05  2.9297732e-07  4.4026506e-08  3.0439386e-08
     23700   1.1801505e-06  3.2622942e-05  8.174251e-07   5.3759826e-08  3.4035257e-08
     23800   1.1433407e-06  3.2908467e-05  2.0283866e-06  1.1017677e-07  7.9676793e-08
     23900   1.2369866e-06  3.3201176e-05  2.5072118e-06  2.0624745e-07  1.4141564e-07
     24000   1.2140174e-06  3.3493613e-05  1.3052711e-08  3.1424661e-08  1.2274543e-08
     24100   1.1676755e-06  3.3790471e-05  8.6295478e-08  3.3319219e-08  1.4109335e-08
     24200   1.1234876e-06  3.408468e-05   1.3570651e-07  3.4678331e-08  1.7939661e-08
     24300   1.0840065e-06  3.4375449e-05  3.0835083e-07  5.7799377e-08  2.6254663e-08
     24400   1.0502881e-06  3.466137e-05   2.0117916e-07  3.4120268e-08  2.0063788e-08
     24500   1.0228044e-06  3.4941705e-05  2.0331593e-07  3.4420793e-08  1.7048783e-08
     24600   1.0000485e-06  3.5218752e-05  2.1194695e-07  3.6368775e-08  1.7430411e-08
     24700   9.8137806e-07  3.5494289e-05  1.9104364e-07  3.564153e-08   1.5403622e-08
     24800   9.6771905e-07  3.5769424e-05  1.7282544e-07  3.5712228e-08  1.3719473e-08
     24900   9.5837656e-07  3.6045767e-05  1.4561254e-07  3.5626588e-08  1.3980094e-08
     25000   9.5237517e-07  3.6322962e-05  1.1198762e-07  3.362154e-08   1.1996926e-08
     25100   9.4774807e-07  3.6600552e-05  7.9998469e-08  3.2607517e-08  1.030364e-08 
     25200   9.4338073e-07  3.687966e-05   4.4577339e-08  3.1247367e-08  8.2818374e-09
     25300   9.3698602e-07  3.7160582e-05  1.2695797e-08  2.9331015e-08  6.157383e-09 
     25400   9.3496957e-07  3.744564e-05   1.4697791e-06  8.3353215e-08  6.1217971e-08
     25500   9.9534837e-07  3.7735527e-05  2.184978e-07   5.2039433e-08  1.6881001e-08
     25600   9.7323519e-07  3.8025654e-05 -5.3488702e-09  2.6049055e-08  5.825474e-09 
     25700   9.5254607e-07  3.8320627e-05  6.4785729e-09  2.6182388e-08  6.2286197e-09
     25800   9.2607393e-07  3.8618109e-05  3.3721645e-07  3.5792717e-08  7.6368137e-09
     25900   9.0431176e-07  3.8917672e-05  6.5198708e-08  3.0530487e-08  1.0907947e-08
     26000   8.8459014e-07  3.9216325e-05  4.526705e-08   2.5926991e-08  8.2940758e-09
     26100   8.7066999e-07  3.9512909e-05  4.5641397e-08  2.7967103e-08  8.5075264e-09
     26200   8.6421475e-07  3.9805689e-05  4.4517138e-08  2.6404292e-08  8.0717163e-09
     26300   8.6599123e-07  4.0093309e-05  3.0437958e-08  2.7160083e-08  8.4704667e-09
     26400   8.7638767e-07  4.0375654e-05  1.7742659e-08  2.73254e-08    8.98875e-09  
     26500   8.9347587e-07  4.0653485e-05  1.0779065e-07  3.0509553e-08  8.9663668e-09
     26600   9.2061664e-07  4.0927109e-05  1.002413e-07   3.0664368e-08  9.2562622e-09
     26700   9.5072825e-07  4.1198335e-05  1.0086518e-06  7.2415661e-08  6.034638e-08 
     26800   9.9672625e-07  4.1472398e-05  7.7703943e-07  9.7160778e-08  3.7192165e-08
     26900   1.0199846e-06  4.1742159e-05 -4.4910901e-08  2.3393513e-08  5.7391248e-09
     27000   1.0411178e-06  4.2010532e-05 -2.2384047e-08  2.3890274e-08  7.5047319e-09
     27100   1.064574e-06   4.2276783e-05  2.8209642e-09  2.5714493e-08  8.7958216e-09
     27200   1.0900712e-06  4.2543572e-05  2.5184342e-08  2.7261173e-08  1.0596173e-08
     27300   1.1120294e-06  4.2814629e-05  1.3189106e-07  4.0148628e-08  1.1574726e-08
     27400   1.1301484e-06  4.3091672e-05  8.9557526e-08  3.3193724e-08  1.184584e-08 
     27500   1.1434072e-06  4.3376208e-05  8.6830803e-08  2.9871203e-08  1.2002267e-08
     27600   1.1507777e-06  4.366866e-05   1.1408516e-07  3.0566074e-08  1.1993209e-08
     27700   1.1512225e-06  4.3969455e-05  1.3782548e-07  3.1525702e-08  1.5412755e-08
     27800   1.1447533e-06  4.4277995e-05  1.6760185e-07  3.3328473e-08  1.5421875e-08
     27900   1.1317467e-06  4.4592907e-05  1.9635849e-07  3.5915462e-08  1.712251e-08 
     28000   1.112791e-06   4.4913185e-05  2.257795e-07   3.8831944e-08  1.7875551e-08
     28100   1.0874331e-06  4.5238327e-05  2.5486616e-07  4.1839612e-08  1.7636723e-08
     28200   1.0580715e-06  4.5568072e-05  2.7929647e-07  4.4986328e-08  1.9590753e-08
     28300   1.0254792e-06  4.5901778e-05  3.0311006e-07  4.7034588e-08  1.9324222e-08
     28400   9.908747e-07   4.6237892e-05  3.1894516e-07  4.9578292e-08  2.0916069e-08
     28500   9.569238e-07   4.6574237e-05  3.3032868e-07  5.1134774e-08  2.0494389e-08
     28600   9.2736771e-07  4.6908318e-05  3.3347725e-07  5.1576762e-08  2.0771951e-08
     28700   9.0575846e-07  4.7237344e-05  3.2764332e-07  5.1458395e-08  2.1510486e-08
     28800   8.9583867e-07  4.7559e-05     3.1576052e-07  5.0224228e-08  2.0768532e-08
     28900   8.9887948e-07  4.7872223e-05  2.9555936e-07  4.9135575e-08  2.1224269e-08
     29000   9.1443496e-07  4.817747e-05   2.7387801e-07  4.7561412e-08  1.9128308e-08
     29100   9.4013103e-07  4.8476636e-05  2.4987861e-07  4.6120052e-08  1.7907297e-08
     29200   9.714071e-07   4.8772351e-05  2.2879298e-07  4.363432e-08   1.6606352e-08
     29300   1.0039979e-06  4.9067679e-05  2.1182559e-07  4.0984811e-08  1.5843036e-08
     29400   1.0329559e-06  4.9365912e-05  1.9982522e-07  3.8684153e-08  1.6319641e-08
     29500   1.0540064e-06  4.9669753e-05  1.9577244e-07  3.645269e-08   1.6401931e-08
     29600   1.0653792e-06  4.998069e-05   1.9703336e-07  3.6214644e-08  1.6955441e-08
     29700   1.0664214e-06  5.0298773e-05  2.0503691e-07  3.5977691e-08  1.7613352e-08
     29800   1.0596365e-06  5.0622755e-05  2.1739398e-07  3.6659418e-08  1.8186462e-08
     29900   1.0477128e-06  5.0950899e-05  2.3276825e-07  3.6989375e-08  1.9150683e-08
     30000   1.0332603e-06  5.1281985e-05  2.4893142e-07  3.7822044e-08  1.9722388e-08
     30100   1.0178566e-06  5.1615933e-05  2.6464842e-07  3.8815019e-08  2.010276e-08 
     30200   1.001235e-06   5.1953693e-05  2.7934148e-07  3.9831163e-08  2.0510247e-08
     30300   9.8289555e-07  5.2296486e-05  2.9320122e-07  4.0941999e-08  2.070312e-08 
     30400   9.6246706e-07  5.264507e-05   3.0662377e-07  4.1519268e-08  2.1370831e-08
     30500   9.3915869e-07  5.2999646e-05  3.1994996e-07  4.2372162e-08  2.1805831e-08
     30600   9.1264784e-07  5.3359982e-05  3.3372564e-07  4.3213601e-08  2.2260272e-08
     30700   8.8180281e-07  5.3725626e-05  3.4802988e-07  4.4623224e-08  2.2399011e-08
     30800   8.4570948e-07  5.4096169e-05  3.6305984e-07  4.6322992e-08  2.2468643e-08
     30900   8.0399059e-07  5.4471082e-05  3.7847992e-07  4.8213244e-08  2.2809496e-08
     31000   7.5673606e-07  5.4849698e-05  3.944173e-07   4.9836223e-08  2.3273085e-08
     31100   7.0495655e-07  5.5231346e-05  4.097031e-07   5.1363379e-08  2.4013877e-08
     31200   6.4924423e-07  5.5615505e-05  4.2363855e-07  5.2837059e-08  2.4520109e-08
     31300   5.9070584e-07  5.6001838e-05  4.3462849e-07  5.4345187e-08  2.491796e-08 
     31400   5.3081854e-07  5.6389977e-05  4.4161969e-07  5.5623034e-08  2.5063883e-08
     31500   4.7184876e-07  5.6779228e-05  4.4342284e-07  5.6444621e-08  2.4910802e-08
     31600   4.1650688e-07  5.7168383e-05  4.3862735e-07  5.6906231e-08  2.44037e-08  
     31700   3.674599e-07   5.7555771e-05  4.264984e-07   5.6817325e-08  2.3261194e-08
     31800   3.2693579e-07  5.7939623e-05  4.0607133e-07  5.6327143e-08  2.1654057e-08
     31900   2.9600866e-07  5.8318515e-05  3.7795984e-07  5.4981139e-08  1.9588917e-08
     32000   2.748785e-07   5.8691535e-05  3.4332608e-07  5.252334e-08   1.7251896e-08
     32100   2.6272752e-07  5.9058306e-05  3.0370505e-07  4.9078263e-08  1.4859073e-08
     32200   2.5831334e-07  5.9418999e-05  2.612509e-07   4.4823671e-08  1.2414671e-08
     32300   2.6012321e-07  5.9774154e-05  2.1755503e-07  4.0551318e-08  1.0014205e-08
     32400   2.6674017e-07  6.0124551e-05  1.7483159e-07  3.6601302e-08  7.567619e-09 
     32500   2.7706448e-07  6.0471144e-05  1.350331e-07   3.316162e-08   5.1291347e-09
     32600   2.9035483e-07  6.0814916e-05  9.9600522e-08  3.0273916e-08  2.8780358e-09
     32700   3.110242e-07   6.115686e-05   2.0819117e-07  2.9801795e-08  1.3523771e-08
     32800   3.4142622e-07  6.1496885e-05  9.6409527e-08  3.0634992e-08  1.6987028e-09
     32900   3.5961524e-07  6.183555e-05   4.563999e-08   2.343214e-08  -8.1631314e-11
     33000   3.8054554e-07  6.2174516e-05  3.7344291e-08  2.2743988e-08 -6.2123965e-10
     33100   4.038344e-07   6.2514306e-05  3.4791362e-08  2.399346e-08  -1.592718e-09 
     33200   4.2911233e-07  6.2854847e-05  3.8079933e-08  2.5576009e-08 -2.90854e-09  
     33300   4.5809483e-07  6.3195364e-05  4.496723e-08   2.570718e-08  -2.3678408e-09
     33400   4.9139599e-07  6.3534795e-05  5.5493244e-08  2.5379529e-08 -1.7499083e-09
     33500   5.2878143e-07  6.3872335e-05  6.8545511e-08  2.4765854e-08 -5.2709248e-10
     33600   5.6951185e-07  6.4207731e-05  8.5876016e-08  2.5977401e-08  3.3034036e-10
     33700   6.1003545e-07  6.4541966e-05  1.0447965e-07  2.7192771e-08  1.2451575e-09
     33800   6.5056259e-07  6.4875218e-05  1.3094289e-07  2.9068071e-08  2.5254032e-09
     33900   6.8841626e-07  6.5209059e-05  1.5418875e-07  3.2115934e-08  3.7978761e-09
     34000   7.2099827e-07  6.554574e-05   1.833729e-07   3.6463062e-08  4.9027749e-09
     34100   7.472699e-07   6.5886884e-05  2.1909169e-07  4.1410152e-08  5.8064834e-09
     34200   7.6608388e-07  6.6233605e-05  2.6099944e-07  4.5921376e-08  7.0094564e-09
     34300   7.7818993e-07  6.658655e-05   3.0759411e-07  5.0489578e-08  8.8777686e-09
     34400   7.8444328e-07  6.6945826e-05  3.5851871e-07  5.4862547e-08  1.1556354e-08
     34500   7.8628101e-07  6.731097e-05   4.1324786e-07  5.9759378e-08  1.4162006e-08
     34600   7.8642187e-07  6.7680366e-05  4.7063846e-07  6.5464418e-08  1.6455995e-08
     34700   7.8728735e-07  6.805164e-05   5.2861121e-07  7.2350642e-08  1.8635358e-08
     34800   7.9143668e-07  6.8422251e-05  5.8589476e-07  7.9793279e-08  2.0890008e-08
     34900   8.0077828e-07  6.8790164e-05  6.4110319e-07  8.6721727e-08  2.3605038e-08
     35000   8.1627526e-07  6.915431e-05   6.9233878e-07  9.290526e-08   2.6448277e-08
     35100   8.3630371e-07  6.9514263e-05  7.3798218e-07  9.7961068e-08  2.8707608e-08
     35200   8.5800501e-07  6.9870615e-05  7.7528474e-07  1.0182797e-07  3.0575183e-08
     35300   8.7936214e-07  7.0224662e-05  8.0246855e-07  1.0373928e-07  3.2366537e-08
     35400   8.9900949e-07  7.0577975e-05  8.1765099e-07  1.0376629e-07  3.3901014e-08
     35500   9.1610099e-07  7.0932141e-05  8.1892686e-07  1.0231667e-07  3.4868416e-08
     35600   9.2995248e-07  7.1288384e-05  8.0504561e-07  9.9738804e-08  3.4635333e-08
     35700   9.4064747e-07  7.1647674e-05  7.7529051e-07  9.5739298e-08  3.3199109e-08
     35800   9.4881914e-07  7.2010727e-05  7.2974285e-07  8.9869555e-08  3.0648834e-08
     35900   9.5534297e-07  7.2378031e-05  6.6887427e-07  8.191139e-08   2.7304115e-08
     36000   9.6106284e-07  7.2749726e-05  5.934237e-07   7.2212215e-08  2.3288684e-08
     36100   9.6666375e-07  7.3125732e-05  5.0467072e-07  6.1599814e-08  1.8574944e-08
     36200   9.7264712e-07  7.3505854e-05  4.0541364e-07  5.0593358e-08  1.3159232e-08
     36300   9.7919894e-07  7.3889892e-05  2.994679e-07   3.9565324e-08  7.039751e-09 
     36400   9.8594757e-07  7.4277582e-05  1.9124426e-07  2.8438814e-08  6.1674855e-10
     36500   9.9267106e-07  7.4668455e-05  1.107456e-07   1.7782263e-08 -5.4574935e-09
     36600   9.9789263e-07  7.5061874e-05  1.7493049e-07  3.1042507e-08 -6.9560536e-09
     36700   9.9408247e-07  7.5458686e-05  3.2186697e-06  2.5333985e-07  2.3248199e-07
     36800   1.1194591e-06  7.5845e-05     2.3204799e-07  3.5717981e-08  3.9915022e-09
     36900   1.1256171e-06  7.6230809e-05  4.3850501e-08  5.4796426e-09 -8.7210542e-09
     37000   1.1294704e-06  7.6619181e-05  1.3345611e-07  1.262421e-08  -3.0963771e-09
     37100   1.1293456e-06  7.7009469e-05  2.2564329e-07  2.08171e-08    5.7445936e-09
     37200   1.1258511e-06  7.7404069e-05  3.1771789e-07  3.2018551e-08  1.434521e-08 
     37300   1.1187565e-06  7.7804633e-05  4.086237e-07   4.3517257e-08  2.1814612e-08
     37400   1.1054237e-06  7.8212411e-05  4.9374771e-07  5.5228911e-08  2.8075279e-08
     37500   1.0894315e-06  7.8626947e-05  5.7187768e-07  6.2712e-08     3.3943438e-08
     37600   1.0707915e-06  7.9045415e-05  6.3585265e-07  6.6930584e-08  4.06402e-08  
     37700   1.054883e-06   7.9464158e-05  6.8266671e-07  7.0399633e-08  4.4651503e-08
     37800   1.0426176e-06  7.9880487e-05  7.1097228e-07  7.2109265e-08  4.5573162e-08
     37900   1.0332193e-06  8.0293471e-05  7.189672e-07   7.2988748e-08  4.3331458e-08
     38000   1.0275954e-06  8.0702218e-05  7.1016196e-07  6.8514357e-08  3.9413981e-08
     38100   1.0251031e-06  8.1105661e-05  6.8258175e-07  6.1268959e-08  3.495929e-08 
     38200   1.0277621e-06  8.1502632e-05  6.3906878e-07  5.1950431e-08  2.9632236e-08
     38300   1.0356599e-06  8.1893243e-05  5.7971851e-07  4.2945106e-08  2.5212566e-08
     38400   1.0494257e-06  8.2278493e-05  5.0930949e-07  3.5574153e-08  2.0530425e-08
     38500   1.0669536e-06  8.2661877e-05  4.3154673e-07  2.971129e-08   1.6969053e-08
     38600   1.084763e-06   8.3048273e-05  3.5088954e-07  2.6379243e-08  1.3609943e-08
     38700   1.1010646e-06  8.3441274e-05  2.7427286e-07  2.2222999e-08  1.0951439e-08
     38800   1.113427e-06   8.3842698e-05  2.0369002e-07  1.791029e-08   9.9131983e-09
     38900   1.1219261e-06  8.4252407e-05  2.9401367e-07  1.4609947e-08  9.6155988e-09
     39000   1.1295815e-06  8.4667176e-05  1.0524409e-07  5.4723252e-09  4.9298092e-09
     39100   1.1369376e-06  8.5086604e-05  7.9535178e-08  2.145418e-09  -1.2482136e-09
     39200   1.1422198e-06  8.5510662e-05  6.922033e-08   1.2815667e-09 -7.9064703e-09
     39300   1.1429961e-06  8.5939259e-05  8.1869751e-08  6.1348255e-10 -8.9431226e-09
     39400   1.1421408e-06  8.6370672e-05  1.1014147e-07  1.2605789e-09 -7.0855215e-09
     39500   1.1388335e-06  8.6804269e-05  1.5129714e-07  4.9740723e-09 -4.4303608e-09
     39600   1.1304073e-06  8.7239791e-05  2.0974321e-07  1.1774553e-08 -8.3408414e-10
     39700   1.1188462e-06  8.7676573e-05  2.7841282e-07  1.905329e-08   4.264709e-09 
     39800   1.1042775e-06  8.8114127e-05  3.5246166e-07  2.5642134e-08  9.2704712e-09
     39900   1.0900503e-06  8.8552974e-05  4.2634151e-07  3.1639125e-08  1.3413393e-08
     40000   1.0755091e-06  8.899224e-05   4.9597586e-07  3.5127592e-08  1.737841e-08 
     40100   1.0594069e-06  8.9431409e-05  5.5834617e-07  3.7568123e-08  1.8569699e-08
     40200   1.0437794e-06  8.9869664e-05  6.0929924e-07  3.745747e-08   2.0003308e-08
     40300   1.0284151e-06  9.0306651e-05  6.4795652e-07  3.5578785e-08  2.0205986e-08
     40400   1.014853e-06   9.0741208e-05  6.7180197e-07  3.370993e-08   1.9853014e-08
     40500   1.0046703e-06  9.1171969e-05  6.8108804e-07  3.201614e-08   1.9796271e-08
     40600   9.9914893e-07  9.1598656e-05  6.7763911e-07  3.1872656e-08  1.9139185e-08
     40700   9.9834617e-07  9.2021699e-05  6.6309888e-07  3.0849932e-08  2.0320101e-08
     40800   9.9977768e-07  9.244336e-05   6.377797e-07   3.036317e-08   2.1951189e-08
     40900   1.0012101e-06  9.2865668e-05  6.0209514e-07  3.0115574e-08  2.3292143e-08
     41000   1.0023919e-06  9.3288852e-05  5.5722923e-07  2.906328e-08   2.3184945e-08
     41100   1.0044364e-06  9.3711551e-05  5.036948e-07   2.6529925e-08  2.1664823e-08
     41200   1.0094653e-06  9.4132618e-05  4.4461497e-07  2.1074885e-08  1.8539479e-08
     41300   1.0176177e-06  9.4552216e-05  3.825429e-07   1.530445e-08   1.2699329e-08
     41400   1.0275639e-06  9.4971146e-05  3.2200949e-07  8.7099428e-09  6.0467273e-09
     41500   1.0392821e-06  9.5390598e-05  2.6830125e-07  2.7675791e-09 -3.20993e-10  
     41600   1.0524421e-06  9.5811593e-05  2.2600744e-07 -2.5661268e-09 -4.2175275e-09
     41700   1.0683213e-06  9.6235014e-05  1.9805112e-07 -6.382892e-09  -6.2203033e-09
     41800   1.0861783e-06  9.6661783e-05  1.8769575e-07 -6.0532468e-09 -7.4151279e-09
     41900   1.1046384e-06  9.7093324e-05  1.9622897e-07 -2.3625507e-09 -6.5095415e-09
     42000   1.1215759e-06  9.7531007e-05  2.2169795e-07  3.6249121e-09 -3.0041544e-09
     42100   1.13542e-06    9.7975014e-05  2.6497883e-07  9.3411181e-09  4.0057875e-09
     42200   1.1456213e-06  9.8424277e-05  3.0973621e-07  1.4790257e-08  1.1886251e-08
     42300   1.152124e-06   9.8876448e-05  3.6278025e-07  1.9733849e-08  1.822959e-08 
     42400   1.1575881e-06  9.9328542e-05  4.1694455e-07  2.2957654e-08  2.2792499e-08
     42500   1.161781e-06   9.9778498e-05  4.6751425e-07  2.4510836e-08  2.515195e-08 
     42600   1.1649349e-06  0.00010022631  5.1101825e-07  2.4287735e-08  2.6388182e-08
     42700   1.1661055e-06  0.00010067305  5.4476238e-07  2.3875592e-08  2.6765572e-08
     42800   1.1641137e-06  0.00010112014  5.6783472e-07  2.2995423e-08  2.7503917e-08
     42900   1.1573631e-06  0.00010156908  5.7951702e-07  2.2160465e-08  2.9266385e-08
     43000   1.1449969e-06  0.00010202119  5.8023834e-07  2.235833e-08   3.0995624e-08
     43100   1.1285057e-06  0.00010247685  5.7076485e-07  2.3287538e-08  3.2610811e-08
     43200   1.1099663e-06  0.00010293518  5.5273204e-07  2.4314521e-08  3.346375e-08 
     43300   1.0901065e-06  0.00010339302  6.1277949e-07  3.0831709e-08  3.6612829e-08
     43400   1.0795474e-06  0.00010384778  5.2420922e-07  1.8357684e-08  3.0348305e-08
     43500   1.073717e-06   0.00010430271  5.0871814e-07  1.9304557e-08  2.3147036e-08
     43600   1.0688599e-06  0.00010476015  4.893361e-07   1.9463887e-08  1.83389e-08  
     43700   1.0611474e-06  0.00010522371  4.6656417e-07  1.7061736e-08  1.7399227e-08
     43800   1.0473387e-06  0.00010569606  4.4066098e-07  1.4257261e-08  1.7626716e-08
     43900   1.0285629e-06  0.00010617624  4.1316072e-07  1.2922319e-08  1.552753e-08 
     44000   1.0085287e-06  0.00010666044  3.8477216e-07  1.2048893e-08  1.230986e-08 
     44100   9.9088458e-07  0.00010714529  3.5721194e-07  1.0454516e-08  9.009289e-09 
     44200   9.7762548e-07  0.00010762905  3.3277027e-07  8.5866454e-09  5.173486e-09 
     44300   9.894506e-07   0.00010810898  3.654834e-07   8.0570406e-09  5.9116944e-09
     44400   9.8865522e-07  0.00010858296  3.1574992e-07  2.9525878e-09 -3.3900792e-09
     44500   9.8900861e-07  0.00010905715  3.2459438e-07 -5.8753175e-10 -3.2296223e-09
     44600   9.8537811e-07  0.00010953493  3.4502812e-07  2.7908264e-11 -2.0298104e-09
     44700   9.7575206e-07  0.00011001862  3.7691204e-07  5.0773976e-09 -3.4418897e-10
     44800   9.5727774e-07  0.00011051068  4.1742871e-07  1.2492464e-08  3.7394766e-09
     44900   9.2894152e-07  0.00011101202  4.6309846e-07  1.9281246e-08  1.1507862e-08
     45000   8.9301449e-07  0.00011152026  5.0847622e-07  2.5642887e-08  2.1627973e-08
     45100   8.5555598e-07  0.00011202989  5.4897706e-07  3.282654e-08   2.9755219e-08
     45200   8.2271043e-07  0.00011253419  5.8003978e-07  3.8679831e-08  3.4889647e-08
     45300   7.9806724e-07  0.00011302944  5.9748691e-07  4.2046397e-08  3.6431059e-08
     45400   7.8089596e-07  0.00011351683  5.9973848e-07  4.1187245e-08  3.5052638e-08
     45500   7.6817335e-07  0.00011400054  5.8642924e-07  3.6563552e-08  3.1608839e-08
     45600   7.5511801e-07  0.0001144872   5.6025057e-07  2.9879607e-08  2.5593434e-08
     45700   7.3694311e-07  0.0001149831   5.247029e-07   2.1497773e-08  1.9094753e-08
     45800   7.1339767e-07  0.00011548977  4.8415245e-07  1.3864424e-08  1.1979074e-08
     45900   6.8883134e-07  0.0001160037   4.430154e-07   7.524615e-09   5.3661352e-09
     46000   6.7283952e-07  0.0001165181   7.2987703e-07  2.0308123e-08  1.8212649e-08
     46100   6.7714353e-07  0.00011702337  3.8490699e-07 -1.0984838e-09 -3.0226863e-09
     46200   6.8123909e-07  0.00011751883  3.7267198e-07 -3.7420616e-09 -2.1045025e-09
     46300   6.9370257e-07  0.0001180063   3.6732378e-07 -1.1132707e-09 -8.7988028e-10
     46400   7.0844331e-07  0.00011849018  3.7087761e-07  3.9754444e-09  1.5582027e-09
     46500   7.1941235e-07  0.00011897725  3.8075349e-07  1.1174909e-08  6.804389e-09 
     46600   7.2287882e-07  0.00011947047  3.9785797e-07  1.7038216e-08  1.3679169e-08
     46700   7.1939133e-07  0.00011996799  4.206452e-07   2.0674847e-08  1.9687357e-08
     46800   7.1286645e-07  0.00012046625  4.4764739e-07  2.3396646e-08  2.289839e-08 
     46900   7.0500615e-07  0.00012096221  4.826544e-07   2.2610327e-08  2.3800267e-08
     47000   6.9843935e-07  0.00012145431  4.9257348e-07  1.9693513e-08  2.2073321e-08
     47100   6.9260669e-07  0.0001219437   5.1102837e-07  1.5606844e-08  1.9865757e-08
     47200   6.8917055e-07  0.00012243145  5.27697e-07    1.1655561e-08  1.711109e-08 
     47300   6.8843006e-07  0.00012291992  5.4316517e-07  9.2328113e-09  1.5107833e-08
     47400   6.8759932e-07  0.00012341289  5.5951435e-07  6.8059119e-09  1.655036e-08 
     47500   6.8544023e-07  0.00012391312  5.7861256e-07  5.5489875e-09  2.0697309e-08
     47600   6.7939392e-07  0.00012442173  6.0221768e-07  5.9631161e-09  2.6074399e-08
     47700   6.7014242e-07  0.00012493811  6.3088045e-07  8.2578076e-09  3.0832315e-08
     47800   6.5860508e-07  0.00012545975  6.6319844e-07  1.023578e-08   3.5385187e-08
     47900   6.4777855e-07  0.00012598253  6.9523809e-07  1.0690246e-08  4.0662243e-08
     48000   6.4108838e-07  0.00012650153  7.2295464e-07  1.1816985e-08  4.412525e-08 
     48100   6.4021926e-07  0.00012701379  7.4307385e-07  1.3624158e-08  4.5313475e-08
     48200   6.424591e-07   0.00012752039  7.5336929e-07  1.5052949e-08  4.4243257e-08
     48300   6.4308538e-07  0.00012802476  7.5214804e-07  1.5169489e-08  4.1379246e-08
     48400   6.4011815e-07  0.00012852992  7.3837583e-07  1.3746583e-08  3.7213682e-08
     48500   6.3239724e-07  0.0001290379   7.1201023e-07  1.156703e-08   3.2001461e-08
     48600   6.2043851e-07  0.00012954932  6.7343576e-07  8.9740155e-09  2.7034738e-08
     48700   6.0452678e-07  0.00013006384  6.2388659e-07  6.9357403e-09  2.2609539e-08
     48800   5.8817378e-07  0.00013058047  5.6563856e-07  5.3958449e-09  1.939928e-08 
     48900   5.7462576e-07  0.00013109787  5.0235026e-07  3.3473987e-09  1.7708643e-08
     49000   5.6683255e-07  0.00013161539  4.3900414e-07  6.5198579e-10  1.5984743e-08
     49100   5.6557457e-07  0.00013213295  3.8077878e-07 -2.5835336e-09  1.2600954e-08
     49200   5.7015304e-07  0.00013265046  3.3290704e-07 -6.454698e-09   7.3224464e-09
     49300   5.7940312e-07  0.00013316796  3.0131266e-07 -1.176661e-08   1.3540738e-09
     49400   5.9095684e-07  0.00013368535  2.9141872e-07 -1.7846655e-08 -3.7448719e-09
     49500   6.0412683e-07  0.00013420206  3.0750095e-07 -2.2766252e-08 -7.0314173e-09
     49600   6.1821163e-07  0.00013471673  3.5057433e-07 -2.4276387e-08 -7.2003848e-09
     49700   6.3428541e-07  0.00013522799  4.1864391e-07 -2.1232419e-08 -2.9598019e-09
     49800   6.509761e-07   0.00013573644  5.0717744e-07 -1.3989647e-08  5.7796186e-09
     49900   6.6554035e-07  0.00013624525  6.0884375e-07 -3.7292942e-09  1.7818486e-08
     50000   6.7460156e-07  0.00013675801  7.1474081e-07  7.20995e-09    3.0707099e-08
     50100   6.763099e-07   0.00013727673  8.1432554e-07  1.682098e-08   4.190293e-08 
     50200   6.7115415e-07  0.00013780122  8.977644e-07   2.298297e-08   4.9473236e-08
     50300   6.6046173e-07  0.00013832972  9.5719021e-07  2.5005679e-08  5.2216909e-08
     50400   6.4755093e-07  0.0001388597   9.8783711e-07  2.3484788e-08  4.9961171e-08
     50500   6.3579759e-07  0.00013938839  9.8885125e-07  1.9318935e-08  4.4050724e-08
     50600   6.2880182e-07  0.00013991388  9.6233177e-07  1.4183551e-08  3.6751356e-08
     50700   6.2713408e-07  0.00014043631  9.1329203e-07  9.3970945e-09  3.0242249e-08
     50800   6.2952598e-07  0.00014095794  8.4843322e-07  6.2629647e-09  2.5318218e-08
     50900   6.3231379e-07  0.00014148233  7.7510326e-07  4.7407563e-09  2.1612766e-08
     51000   6.3184008e-07  0.00014201285  6.9968493e-07  3.7348872e-09  1.864987e-08 
     51100   6.2627577e-07  0.00014255107  6.2720735e-07  2.3531062e-09  1.5365381e-08
     51200   6.1624272e-07  0.00014309563  5.612107e-07   2.0263495e-10  1.1225338e-08
     51300   6.0546591e-07  0.00014364271  5.049004e-07  -2.5463922e-09  5.9480519e-09
     51400   5.9688074e-07  0.00014418827  4.6169734e-07 -5.441372e-09  -1.2221773e-10
     51500   5.9247444e-07  0.00014473029  4.3551939e-07 -8.0054237e-09 -6.1217612e-09
     51600   5.9168442e-07  0.00014526891  4.3023498e-07 -9.3824202e-09 -1.1246098e-08
     51700   5.9382167e-07  0.00014580533  4.4849747e-07 -8.720374e-09  -1.4267086e-08
     51800   5.9668025e-07  0.00014634149  4.9078756e-07 -5.2007125e-09 -1.4489607e-08
     51900   5.9700339e-07  0.00014688035  5.5412505e-07  1.791982e-09  -1.162986e-08 
     52000   5.9102069e-07  0.00014742536  6.3251707e-07  1.1493054e-08 -6.2682781e-09
     52100   5.7661579e-07  0.00014797832  7.1696571e-07  2.2379112e-08  3.1149817e-10
     52200   5.5569345e-07  0.00014853769  7.9739191e-07  3.217732e-08   6.1040104e-09
     52300   5.3203172e-07  0.00014909941  8.6408655e-07  3.8994553e-08  9.2453998e-09
     52400   5.1028117e-07  0.00014965923  9.0998207e-07  4.1663689e-08  8.8100394e-09
     52500   4.926384e-07   0.00015021453  9.3204042e-07  4.0111074e-08  5.1555846e-09
     52600   4.8039079e-07  0.00015076462  9.3127884e-07  3.5580718e-08 -2.4687224e-10
     52700   4.7320031e-07  0.0001513101   9.1188201e-07  3.00702e-08   -5.6549003e-09
     52800   4.7046114e-07  0.00015185264  8.7915321e-07  2.5650165e-08 -9.4092361e-09
     52900   4.7067987e-07  0.00015239474  8.381437e-07   2.3269667e-08 -1.0821666e-08
     53000   4.7212833e-07  0.00015293908  7.9214257e-07  2.2803271e-08 -1.0076961e-08
     53100   4.7392687e-07  0.00015348739  7.4332964e-07  2.2690336e-08 -8.3979976e-09
     53200   4.7568989e-07  0.00015403987  6.9292251e-07  2.1347047e-08 -7.2605041e-09
     53300   4.7767107e-07  0.00015459583  6.4299872e-07  1.7453766e-08 -7.8203975e-09
     53400   4.7841611e-07  0.00015515513  5.9705895e-07  1.087818e-08  -1.027682e-08 
     53500   4.7574755e-07  0.00015571858  5.6008227e-07  2.9376408e-09 -1.3827066e-08
     53600   4.6758594e-07  0.00015628675  5.3775167e-07 -4.4491188e-09 -1.6883868e-08
     53700   4.5439902e-07  0.00015685856  5.3433638e-07 -9.0274471e-09 -1.7649769e-08
     53800   4.3822664e-07  0.00015743163  5.5143732e-07 -9.6750276e-09 -1.4976626e-08
     53900   4.2162107e-07  0.00015800368  5.8663054e-07 -6.3509351e-09 -8.7988321e-09
     54000   4.062611e-07   0.00015857349  6.3432461e-07 -4.8840079e-10 -6.212485e-10 
     54100   3.9301736e-07  0.00015914056  6.8688334e-07  5.7074811e-09  7.4467923e-09
     54200   3.8233987e-07  0.00015970514  7.3700712e-07  1.0031434e-08  1.3180823e-08
     54300   3.7309017e-07  0.0001602688   7.7923928e-07  1.1274844e-08  1.5420279e-08
     54400   3.6334603e-07  0.00016083458  8.1097811e-07  9.6173543e-09  1.4400941e-08
     54500   3.5094563e-07  0.0001614053   8.3213349e-07  6.4272997e-09  1.1501687e-08
     54600   3.3652632e-07  0.00016198137  8.4387957e-07  3.5303267e-09  8.6427459e-09
     54700   3.2290845e-07  0.00016256021  8.4739194e-07  2.210269e-09   7.1913115e-09
     54800   3.1417494e-07  0.00016313789  8.4271189e-07  2.8430575e-09  7.6106616e-09
     54900   3.125959e-07   0.00016371148  8.2903361e-07  4.5674715e-09  9.142007e-09 
     55000   3.1755279e-07  0.00016428053  8.05186e-07    6.0556714e-09  1.0511017e-08
     55100   3.2568744e-07  0.00016484704  7.7123865e-07  5.8550338e-09  1.0259653e-08
     55200   3.3211936e-07  0.00016541436  7.2906052e-07  3.2267257e-09  7.7246437e-09
     55300   3.3277481e-07  0.00016598571  6.8292407e-07 -1.7019201e-09  3.0427017e-09
     55400   3.2545713e-07  0.00016656273  6.3867126e-07 -7.862694e-09  -2.7489901e-09
     55500   3.1151282e-07  0.00016714452  6.0254918e-07 -1.365977e-08  -8.1365732e-09
     55600   2.949452e-07   0.00016772771  5.7985332e-07 -1.7623561e-08 -1.1746276e-08
     55700   2.812991e-07   0.00016830794  5.7357896e-07 -1.8714432e-08 -1.2596994e-08
     55800   2.7443195e-07  0.00016888227  5.8423799e-07 -1.6879036e-08 -1.0649297e-08
     55900   2.7520407e-07  0.00016945088  6.0959174e-07 -1.2630414e-08 -6.5695353e-09
     56000   2.8135954e-07  0.00017001672  6.4565476e-07 -7.2957518e-09 -1.6747271e-09
     56100   2.8944201e-07  0.00017058377  6.872121e-07  -2.1958622e-09  2.6482055e-09
     56200   2.9667457e-07  0.00017115513  7.290955e-07   1.4248228e-09  5.2258768e-09
     56300   3.0181741e-07  0.0001717319   7.6674492e-07  3.0062464e-09  5.6536454e-09
     56400   3.0607119e-07  0.00017231264  7.9698577e-07  2.7695869e-09  4.2165481e-09
     56500   3.1230442e-07  0.00017289366  8.1820742e-07  1.4815624e-09  1.9401382e-09
     56600   3.2401918e-07  0.00017347059  8.3034821e-07  2.7167615e-10 -2.1404803e-11
     56700   3.4252683e-07  0.00017404092  8.3457574e-07 -1.5412541e-10 -8.2126821e-10
     56800   3.6602015e-07  0.00017460562  8.32477e-07    4.3517151e-10 -1.6867221e-10
     56900   3.9014908e-07  0.00017516844  8.2583254e-07  1.4443343e-09  1.357298e-09 
     57000   4.1047088e-07  0.00017573366  8.1605155e-07  1.9984441e-09  2.923386e-09 
     57100   4.2438444e-07  0.00017630399  8.0483266e-07  1.1753183e-09  3.43937e-09  
     57200   4.3161214e-07  0.00017687982  7.9415036e-07 -1.2795411e-09  2.4006333e-09
     57300   4.3377331e-07  0.00017745976  7.8704221e-07 -5.0239604e-09 -1.9527594e-11
     57400   4.3341448e-07  0.00017804164  7.8711007e-07 -8.8560752e-09 -2.8595917e-09
     57500   4.3309196e-07  0.00017862346  7.9781751e-07 -1.1312841e-08 -4.7312373e-09
     57600   4.3442583e-07  0.00017920435  8.2123256e-07 -1.1220944e-08 -4.4703374e-09
     57700   4.3745691e-07  0.00017978495  8.5683665e-07 -8.1311493e-09 -1.6407448e-09
     57800   4.4107469e-07  0.00018036689  9.0139362e-07 -2.8544736e-09  3.0186556e-09
     57900   4.4396814e-07  0.00018095166  9.4925996e-07  3.1436427e-09  7.9939384e-09
     58000   4.4562098e-07  0.0001815396   9.9421182e-07  7.96962e-09    1.1474293e-08
     58100   4.4649356e-07  0.00018212983  1.0308639e-06  1.0469285e-08  1.2405442e-08
     58200   4.4716487e-07  0.00018272108  1.0562732e-06  1.0483333e-08  1.071831e-08 
     58300   4.4813173e-07  0.00018331241  1.0700857e-06  8.9537666e-09  7.5478716e-09
     58400   4.4934615e-07  0.00018390352  1.0740772e-06  7.2477141e-09  4.3902747e-09
     58500   4.5064464e-07  0.00018449482  1.0708869e-06  6.4335507e-09  2.3634173e-09
     58600   4.5115342e-07  0.00018508756  1.0628252e-06  6.7407282e-09  1.7074275e-09
     58700   4.4978982e-07  0.00018568351  1.0513905e-06  7.4747945e-09  1.7129625e-09
     58800   4.4545735e-07  0.00018628412  1.0372596e-06  7.6496311e-09  1.419489e-09 
     58900   4.3801924e-07  0.00018688967  1.0211296e-06  6.4650453e-09 -3.0052002e-11
     59000   4.2819433e-07  0.00018749924  1.0043822e-06  3.8453924e-09 -2.6658302e-09
     59100   4.1701513e-07  0.00018811128  9.8982161e-07  3.2616168e-10 -6.0064758e-09
     59200   4.0562913e-07  0.00018872418  9.8110822e-07 -3.0303249e-09 -9.0561022e-09
     59300   3.9501124e-07  0.00018933647  9.8194388e-07 -5.2186801e-09 -1.0838537e-08
     59400   3.8610846e-07  0.00018994719  9.9469537e-07 -5.4034892e-09 -1.0666904e-08
     59500   3.788341e-07   0.00019055633  1.0194985e-06 -3.4812617e-09 -8.3007232e-09
     59600   3.7253609e-07  0.00019116477  1.0539318e-06  8.9421709e-11 -4.2997409e-09
     59700   3.6599543e-07  0.00019177366  1.0934623e-06  4.2827363e-09  3.0321133e-10
     59800   3.5860099e-07  0.00019238362  1.1327057e-06  7.7208039e-09  4.3127118e-09
     59900   3.5014521e-07  0.00019299475  1.1666769e-06  9.6232959e-09  6.7241809e-09
     60000   3.4089091e-07  0.0001936069   1.1919083e-06  9.7172342e-09  7.3273576e-09
     60100   3.3150421e-07  0.00019421987  1.2067569e-06  8.698349e-09   6.6672212e-09
     60200   3.2292789e-07  0.00019483339  1.2112272e-06  7.5647447e-09  5.6644673e-09
     60300   3.1617789e-07  0.00019544738  1.2061906e-06  7.1398334e-09  5.1998105e-09
     60400   3.1138572e-07  0.00019606238  1.1927458e-06  7.6531691e-09  5.4133008e-09
     60500   3.0801059e-07  0.00019667943  1.1718034e-06  8.5715855e-09  5.9291892e-09
     60600   3.0506333e-07  0.00019729938  1.1442701e-06  9.0163211e-09  5.9426198e-09
     60700   3.0206038e-07  0.00019792225  1.1115505e-06  8.206795e-09   4.7802407e-09
     60800   2.9883585e-07  0.00019854715  1.0760786e-06  5.8743184e-09  2.3302961e-09
     60900   2.9565278e-07  0.00019917281  1.0416187e-06  2.3974316e-09 -1.0173778e-09
     61000   2.9284956e-07  0.00019979789  1.0127756e-06 -1.2696212e-09 -4.3095413e-09
     61100   2.9113755e-07  0.0002004212   9.9433754e-07 -4.1190912e-09 -6.5695178e-09
     61200   2.911058e-07   0.00020104206  9.8992391e-07 -5.2769972e-09 -6.9346677e-09
     61300   2.9274207e-07  0.00020166074  1.0011767e-06 -4.4243404e-09 -5.1708566e-09
     61400   2.9524951e-07  0.00020227851  1.0271889e-06 -1.8352347e-09 -1.5559583e-09
     61500   2.9716044e-07  0.00020289712  1.0647048e-06  1.6988528e-09  3.0926194e-09
     61600   2.9728901e-07  0.00020351815  1.1089968e-06  5.1493509e-09  7.7024878e-09
     61700   2.9463576e-07  0.00020414262  1.1547268e-06  7.6662751e-09  1.1397171e-08
     61800   2.8920157e-07  0.00020477084  1.1970637e-06  8.8334729e-09  1.3665035e-08
     61900   2.8152334e-07  0.0002054024   1.2319938e-06  8.8748279e-09  1.4700873e-08
     62000   2.7326303e-07  0.00020603611  1.256645e-06   8.3798519e-09  1.5042942e-08
     62100   2.6627121e-07  0.00020667045  1.269045e-06   8.0286833e-09  1.5397534e-08
     62200   2.6196949e-07  0.00020730429  1.2680633e-06  8.1061944e-09  1.6069495e-08
     62300   2.607284e-07   0.00020793746  1.2534392e-06  8.361891e-09   1.6876639e-08
     62400   2.617136e-07   0.00020857056  1.225899e-06   8.1317733e-09  1.7156087e-08
     62500   2.6396567e-07  0.00020920443  1.1874956e-06  6.6500212e-09  1.6243166e-08
     62600   2.6644532e-07  0.00020983958  1.1416779e-06  3.5403963e-09  1.3806973e-08
     62700   2.6903492e-07  0.00021047598  1.0932698e-06 -1.0023756e-09  1.0144006e-08
     62800   2.7200641e-07  0.00021111304  1.0479959e-06 -6.1893374e-09  6.1011261e-09
     62900   2.7661856e-07  0.00021174969  1.0116683e-06 -1.0919565e-08  2.7595175e-09
     63000   2.8409494e-07  0.0002123848   9.8921798e-07 -1.4199525e-08  1.1649024e-09
     63100   2.9531366e-07  0.00021301789  9.8375424e-07 -1.5410475e-08  1.8348372e-09
     63200   3.0986389e-07  0.00021364958  9.9602691e-07 -1.4525804e-08  4.7707257e-09
     63300   3.2609801e-07  0.00021428158  1.0243365e-06 -1.2042784e-08  9.3092794e-09
     63400   3.4174467e-07  0.00021491594  1.0649641e-06 -8.7683115e-09  1.4492693e-08
     63500   3.545079e-07   0.00021555432  1.1128957e-06 -5.5476805e-09  1.9280209e-08
     63600   3.6315651e-07  0.00021619734  1.1626783e-06 -2.9569934e-09  2.2932768e-08
     63700   3.6750249e-07  0.00021684429  1.2091874e-06 -1.1867339e-09  2.5146076e-08
     63800   3.6893229e-07  0.00021749331  1.2481221e-06 -1.0875361e-11  2.6065604e-08
     63900   3.6943786e-07  0.00021814195  1.2763719e-06  9.9369411e-10  2.6122543e-08
     64000   3.7111623e-07  0.00021878824  1.2921008e-06  2.2368356e-09  2.5721394e-08
     64100   3.7483075e-07  0.00021943156  1.2947953e-06  3.8637162e-09  2.5074086e-08
     64200   3.8016837e-07  0.00022007296  1.2851518e-06  5.6890755e-09  2.3997317e-08
     64300   3.8569121e-07  0.00022071456  1.2650655e-06  7.2772956e-09  2.2130923e-08
     64400   3.8996695e-07  0.00022135854  1.2374769e-06  8.1585019e-09  1.9056976e-08
     64500   3.9223194e-07  0.0002220063   1.206165e-06   8.1338031e-09  1.470598e-08 
     64600   3.9257932e-07  0.00022265821  1.1754614e-06  7.3511803e-09  9.4287457e-09
     64700   3.9193491e-07  0.00022331373  1.1497603e-06  6.4122369e-09  3.9515806e-09
     64800   3.9143394e-07  0.00022397184  1.1329301e-06  6.0667403e-09 -8.0884372e-10
     64900   3.9227442e-07  0.00022463148  1.1276167e-06  7.0035003e-09 -4.0760623e-09
     65000   3.9482397e-07  0.00022529201  1.1347454e-06  9.5696506e-09 -5.4391039e-09
     65100   3.9893509e-07  0.00022595338  1.1532398e-06  1.3572852e-08 -4.9629249e-09
     65200   4.0367805e-07  0.00022661585  1.1802633e-06  1.8429839e-08 -3.2083098e-09
     65300   4.0837058e-07  0.00022727949  1.2116955e-06  2.3198849e-08 -9.5761464e-10
     65400   4.1254568e-07  0.00022794387  1.243079e-06   2.7006995e-08  9.610012e-10 
     65500   4.1645573e-07  0.00022860808  1.270359e-06   2.9247436e-08  1.9740766e-09
     65600   4.2062033e-07  0.00022927102  1.2907332e-06  2.9784969e-08  1.9195755e-09
     65700   4.2575187e-07  0.00022993185  1.3028737e-06  2.9002415e-08  1.0167559e-09
     65800   4.3234484e-07  0.00023059021  1.3070237e-06  2.755765e-08  -2.3159938e-10
     65900   4.4053706e-07  0.00023124646  1.304614e-06   2.6133253e-08 -1.3050246e-09
     66000   4.4999445e-07  0.00023190155  1.2978148e-06  2.5199505e-08 -1.9209961e-09
     66100   4.6014564e-07  0.00023255664  1.289098e-06   2.4777387e-08 -2.0649491e-09
     66200   4.7055973e-07  0.00023321267  1.2807466e-06  2.4614747e-08 -2.0139727e-09
     66300   4.8113021e-07  0.00023386993  1.2748594e-06  2.4314146e-08 -2.0737307e-09
     66400   4.921542e-07   0.00023452819  1.2731111e-06  2.3618754e-08 -2.365906e-09 
     66500   5.0389123e-07  0.00023518694  1.2769156e-06  2.2621576e-08 -2.7463375e-09
     66600   5.1664509e-07  0.00023584573  1.2871064e-06  2.1701495e-08 -2.7883919e-09
     66700   5.3035622e-07  0.00023650424  1.3039239e-06  2.1306002e-08 -1.9780047e-09
     66800   5.4502863e-07  0.00023716241  1.3266264e-06  2.1795758e-08 -3.6855744e-11
     66900   5.6036342e-07  0.00023782029  1.3535212e-06  2.3067094e-08  3.0364873e-09
     67000   5.7634925e-07  0.00023847794  1.3820315e-06  2.4726576e-08  6.7934891e-09
     67100   5.9297187e-07  0.00023913523  1.4091578e-06  2.6082774e-08  1.0597677e-08
     67200   6.1068324e-07  0.00023979177  1.432151e-06   2.6501166e-08  1.3806912e-08
     67300   6.2988043e-07  0.0002404471   1.4490554e-06  2.5669694e-08  1.5971617e-08
     67400   6.5086632e-07  0.00024110102  1.459288e-06   2.3643975e-08  1.7088369e-08
     67500   6.7353661e-07  0.0002417538   1.4635057e-06  2.092319e-08   1.7446928e-08
     67600   6.9734046e-07  0.00024240611  1.4634869e-06  1.8146121e-08  1.7563785e-08
     67700   7.2172064e-07  0.00024305882  1.4613727e-06  1.5871022e-08  1.7872193e-08
     67800   7.4578888e-07  0.00024371266  1.4593269e-06  1.4301426e-08  1.8571056e-08
     67900   7.6928908e-07  0.00024436799  1.4590464e-06  1.3337032e-08  1.9487157e-08
     68000   7.9172401e-07  0.00024502466  1.4618668e-06  1.2570834e-08  2.0340446e-08
     68100   8.1343636e-07  0.00024568209  1.4688644e-06  1.1759493e-08  2.0828307e-08
     68200   8.3415777e-07  0.00024633968  1.4810376e-06  1.0839946e-08  2.0953642e-08
     68300   8.5402264e-07  0.00024699715  1.4992985e-06  1.0114167e-08  2.0995381e-08
     68400   8.7246843e-07  0.00024765464  1.5241059e-06  1.0022608e-08  2.1295318e-08
     68500   8.8923297e-07  0.00024831266  1.5551613e-06  1.0818855e-08  2.2192737e-08
     68600   9.0399144e-07  0.00024897189  1.5909386e-06  1.2493018e-08  2.3587117e-08
     68700   9.1671609e-07  0.00024963283  1.6288674e-06  1.4647929e-08  2.52013e-08  
     68800   9.280473e-07   0.00025029564  1.6656062e-06  1.6753482e-08  2.6561782e-08
     68900   9.3863535e-07  0.00025095994  1.6979499e-06  1.8371324e-08  2.7324719e-08
     69000   9.4998963e-07  0.0002516249   1.7234347e-06  1.9297786e-08  2.7384928e-08
     69100   9.6279318e-07  0.00025228958  1.7409901e-06  1.9567306e-08  2.6859603e-08
     69200   9.7814792e-07  0.00025295319  1.7510212e-06  1.9232912e-08  2.7452549e-08
     69300   9.9569582e-07  0.00025361546  1.7548958e-06  1.8437791e-08  3.054736e-08 
     69400   1.0153511e-06  0.00025427643  1.7551156e-06  1.8760221e-08  3.5019272e-08
     69500   1.0359923e-06  0.00025493629  1.754346e-06   1.9164125e-08  4.0354527e-08
     69600   1.0567999e-06  0.00025559537  1.7546793e-06  1.9161003e-08  4.6068397e-08
     69700   1.0768884e-06  0.0002562539   1.7581504e-06  1.9170806e-08  5.2468754e-08
     69800   1.0956938e-06  0.00025691184  1.7667964e-06  1.9430068e-08  5.9477475e-08
     69900   1.1134091e-06  0.00025756883  1.7826526e-06  2.0043546e-08  6.6825476e-08
     70000   1.1300959e-06  0.00025822427  1.8075112e-06  2.1421438e-08  7.548229e-08 
     70100   1.1465099e-06  0.00025887755  1.8424387e-06  2.3723994e-08  8.5223809e-08
     70200   1.1631241e-06  0.00025952811  1.8876318e-06  2.691634e-08   9.5948774e-08
     70300   1.1811109e-06  0.00026017552  1.9424278e-06  3.0989026e-08  1.0809438e-07
     70400   1.2008657e-06  0.00026081951  2.0050374e-06  3.592802e-08   1.2184542e-07
     70500   1.2232186e-06  0.00026145973  2.0728412e-06  4.1868549e-08  1.3679179e-07
     70600   1.248887e-06   0.00026209537  2.1430294e-06  4.8395048e-08  1.5313687e-07
     70700   1.2791747e-06  0.000262725    2.2129536e-06  5.547632e-08   1.7080677e-07
     70800   1.3158343e-06  0.00026334648  2.2808258e-06  6.3361053e-08  1.8989514e-07
     70900   1.3609074e-06  0.00026395703  2.3458984e-06  7.1951105e-08  2.1016926e-07
     71000   1.4168817e-06  0.00026455351  2.408483e-06   8.1564086e-08  2.3186117e-07
     71100   1.4861833e-06  0.0002651325   2.4697588e-06  9.2233112e-08  2.5490647e-07
     71200   1.5716538e-06  0.00026569027  2.5316376e-06  1.0411554e-07  2.7927954e-07
     71300   1.6765826e-06  0.00026622224  2.5967311e-06  1.1747099e-07  3.0507192e-07
     71400   1.8059573e-06  0.00026672205  2.6680188e-06  1.3261959e-07  3.3220771e-07
     71500   1.967233e-06   0.00026718009  2.7488935e-06  1.4988365e-07  3.6058881e-07
     71600   2.1720333e-06  0.00026758169  2.8430126e-06  1.6962079e-07  3.9007721e-07
     71700   2.4382039e-06  0.00026790455  2.9545955e-06  1.9233171e-07  4.2032075e-07
     71800   2.7930562e-06  0.00026811476  3.0884678e-06  2.1857796e-07  4.5085919e-07
     71900   3.2791421e-06  0.00026815989  3.2501266e-06  2.4891997e-07  4.8062694e-07
     72000   3.9636928e-06  0.00026795696  3.4462156e-06  2.845799e-07   5.0814893e-07
     72100   4.9569126e-06  0.00026737082  3.6845609e-06  3.2683593e-07  5.3075974e-07
     72200   6.4441616e-06  0.00026617394  3.9740199e-06  3.7607478e-07  5.4514141e-07
     72300   8.7438578e-06  0.0002639785   4.3211185e-06  4.335698e-07   5.4811702e-07
     72400   1.2399094e-05  0.00026013186  4.7216277e-06  5.0032284e-07  5.4281306e-07
     72500   1.4259122e-05  0.00025540943  5.2574575e-06  6.2737486e-07  5.0004938e-07
     72600   1.3334899e-05  0.00025398692  5.9018363e-06  7.0602026e-07  6.946266e-07 
     72700   1.2127543e-05  0.00025390416  6.495598e-06   5.7764897e-07  8.5960231e-07
     72800   1.1244165e-05  0.00025373155  6.8711793e-06  6.9965453e-07  1.2297903e-06
     72900   1.0095049e-05  0.00025426949  7.1785488e-06  9.2077069e-07  1.5925351e-06
     73000   9.3457069e-06  0.00025360927  7.6250003e-06  1.0236371e-06  1.8989127e-06
     73100   6.8095309e-06  0.00025458363  8.2831001e-06  1.2233333e-06  2.0284883e-06
     73200   4.6202986e-06  0.00025557865  9.2091708e-06  1.2759527e-06  1.887613e-06 
     73300   4.1990978e-06  0.00025624183  9.8851081e-06  1.2570215e-06  1.7374371e-06
     73400   4.1069131e-06  0.0002571375   1.0208556e-05  1.2304523e-06  1.6621949e-06
     73500   4.2039998e-06  0.00025768757  1.0244027e-05  1.252456e-06   1.6861015e-06
     73600   4.4363717e-06  0.00025751899  1.0046513e-05  1.2724484e-06  1.7184188e-06
     73700   4.7675945e-06  0.00025681958  9.6233059e-06  1.282326e-06   1.763622e-06 
     73800   4.9237809e-06  0.00025619265  9.0303164e-06  1.2818126e-06  1.8236936e-06
     73900   5.5179872e-06  0.00025502838  8.3034022e-06  1.2703442e-06  1.8877871e-06
     74000   6.0922171e-06  0.00025418655  7.5331699e-06  1.2609524e-06  1.9435832e-06
     74100   5.3857679e-06  0.00025504213  6.9123609e-06  1.2518273e-06  1.9586172e-06
     74200   5.0193342e-06  0.00025596539  6.2619968e-06  1.2363037e-06  1.9416657e-06
     74300   5.6355315e-06  0.00025586074  5.442589e-06   1.2244595e-06  1.9023761e-06
     74400   5.6299979e-06  0.00025632957  4.6308083e-06  1.193026e-06   1.8115072e-06
     74500   4.7750796e-06  0.00025750581  3.9434686e-06  1.1521929e-06  1.6857422e-06
     74600   3.7712301e-06  0.00025874428  3.3706495e-06  1.1108236e-06  1.5564327e-06
     74700   2.9415318e-06  0.0002597717   2.9393057e-06  1.0614674e-06  1.4362187e-06
     74800   2.665893e-06   0.00026023637  2.7002642e-06  1.0042763e-06  1.3484324e-06
     74900   2.8575037e-06  0.00026032617  2.6614327e-06  9.7871978e-07  1.342191e-06 
     75000   3.2278241e-06  0.00026043599  2.7920993e-06  1.0016775e-06  1.4356631e-06
     75100   3.7032193e-06  0.00026058754  3.0184372e-06  1.0446682e-06  1.5938399e-06
     75200   4.2759827e-06  0.00026062523  3.3504679e-06  1.0925852e-06  1.7559137e-06
     75300   4.7234164e-06  0.00026069858  3.8287304e-06  1.1314468e-06  1.8646617e-06
     75400   4.791436e-06   0.00026104309  4.4906565e-06  1.1380726e-06  1.906026e-06 
     75500   4.5157865e-06  0.00026164894  5.2180147e-06  1.1406118e-06  1.8921921e-06
     75600   4.4684363e-06  0.00026206726  5.8008618e-06  1.1570944e-06  1.8770918e-06
     75700   4.9422531e-06  0.00026194348  6.1797364e-06  1.180294e-06   1.8770278e-06
     75800   5.3387705e-06  0.00026188761  6.5672825e-06  1.2142748e-06  1.8517421e-06
     75900   5.0744507e-06  0.00026255125  7.0817808e-06  1.2441724e-06  1.8716314e-06
     76000   4.5208063e-06  0.00026352716  7.6546295e-06  1.2716796e-06  1.8434358e-06
     76100   4.5064929e-06  0.00026403273  8.1093023e-06  1.2772728e-06  1.8115114e-06
     76200   4.6442292e-06  0.00026442251  8.4263138e-06  1.3054466e-06  1.7903196e-06
     76300   4.1963405e-06  0.00026528268  8.6190946e-06  1.3230405e-06  1.7743801e-06
     76400   3.6108535e-06  0.00026604948  8.5742802e-06  1.2982978e-06  1.7734769e-06
     76500   3.6337642e-06  0.00026606421  8.2204619e-06  1.2527184e-06  1.7833775e-06
     76600   3.90717e-06    0.0002658698   7.6732818e-06  1.206654e-06   1.8069553e-06
     76700   4.0408608e-06  0.00026592287  7.1094889e-06  1.1828665e-06  1.8213881e-06
     76800   4.1238315e-06  0.00026618378  6.6199021e-06  1.1910857e-06  1.8379895e-06
     76900   4.2647863e-06  0.00026650346  6.2167008e-06  1.2425863e-06  1.8597885e-06
     77000   4.2848822e-06  0.00026694235  5.8787348e-06  1.3027006e-06  1.8540896e-06
     77100   4.1125848e-06  0.00026747703  5.5699391e-06  1.3416559e-06  1.8112495e-06
     77200   3.925099e-06   0.00026804175  5.2478852e-06  1.3615749e-06  1.7726592e-06
     77300   3.8780152e-06  0.00026849109  4.8905661e-06  1.3777254e-06  1.7484935e-06
     77400   3.9087651e-06  0.00026887498  4.5073865e-06  1.3864202e-06  1.7309877e-06
     77500   3.7690824e-06  0.00026941947  4.1907721e-06  1.3816759e-06  1.7162247e-06
     77600   3.3254671e-06  0.00027027994  4.018899e-06   1.3624839e-06  1.6969687e-06
     77700   2.8411989e-06  0.0002712229   3.9750707e-06  1.3414453e-06  1.6813241e-06
     77800   2.6336312e-06  0.00027192829  3.9991473e-06  1.3288808e-06  1.6731547e-06
     77900   2.690595e-06   0.00027239705  4.0819336e-06  1.3333968e-06  1.6605979e-06
     78000   2.8546209e-06  0.0002727731   4.2525732e-06  1.3652315e-06  1.6422884e-06
     78100   3.075004e-06   0.00027309189  4.4988177e-06  1.4120106e-06  1.6184872e-06
     78200   3.5052169e-06  0.000273171    4.7817995e-06  1.4604785e-06  1.5911646e-06
     78300   4.2448688e-06  0.00027294472  5.0782946e-06  1.5023945e-06  1.5672086e-06
     78400   5.0903761e-06  0.00027261908  5.3962713e-06  1.5251145e-06  1.5590527e-06
     78500   5.7201841e-06  0.00027250262  5.749919e-06   1.5362007e-06  1.5462846e-06
     78600   5.8357581e-06  0.00027287958  6.1498969e-06  1.5451449e-06  1.5301741e-06
     78700   5.5476794e-06  0.00027367322  6.5625866e-06  1.561723e-06   1.5139967e-06
     78800   5.1630074e-06  0.0002744952   6.9438318e-06  1.5699767e-06  1.500935e-06 
     78900   4.8302046e-06  0.00027517017  7.286024e-06   1.5602981e-06  1.4949497e-06
     79000   4.4243629e-06  0.00027588612  7.6077718e-06  1.5448997e-06  1.4906368e-06
     79100   3.8006404e-06  0.00027686771  7.9094432e-06  1.548042e-06   1.4867021e-06
     79200   3.089101e-06   0.00027797119  8.1545175e-06  1.5705065e-06  1.4886102e-06
     79300   2.6306928e-06  0.00027885539  8.2667349e-06  1.6196916e-06  1.4850579e-06
     79400   2.7060573e-06  0.00027917227  8.2008784e-06  1.6734819e-06  1.4562877e-06
     79500   3.1987419e-06  0.00027896251  7.993292e-06   1.7055315e-06  1.3991311e-06
     79600   3.6337904e-06  0.00027878431  7.7641722e-06  1.7263267e-06  1.3296613e-06
     79700   3.7840022e-06  0.00027899576  7.5867566e-06  1.7481771e-06  1.286316e-06 
     79800   3.782931e-06   0.00027944335  7.4434215e-06  1.7659904e-06  1.2666205e-06
     79900   3.7200112e-06  0.00027993907  7.2792542e-06  1.785479e-06   1.2515362e-06
     80000   3.5348242e-06  0.00028051883  7.0624406e-06  1.7997765e-06  1.2299973e-06
     80100   3.2593944e-06  0.00028120506  6.8118306e-06  1.8083838e-06  1.2078852e-06
     80200   3.0333746e-06  0.00028193269  6.5202028e-06  1.8172835e-06  1.1846851e-06
     80300   2.9508478e-06  0.00028254602  6.2017155e-06  1.8274549e-06  1.1634116e-06
     80400   3.0145077e-06  0.0002830209   5.8691825e-06  1.844803e-06   1.1504606e-06
     80500   3.2388395e-06  0.00028331713  5.5404412e-06  1.8662134e-06  1.1461343e-06
     80600   3.6132078e-06  0.00028341362  5.252444e-06   1.8879758e-06  1.1399564e-06
     80700   4.0419993e-06  0.00028344486  5.0640845e-06  1.9071243e-06  1.1344733e-06
     80800   4.4377395e-06  0.00028357478  5.0212341e-06  1.9232568e-06  1.1343816e-06
     80900   4.695532e-06   0.00028387001  5.1265723e-06  1.9327367e-06  1.1393598e-06
     81000   4.7589074e-06  0.00028434589  5.3500984e-06  1.9309222e-06  1.1442125e-06
     81100   4.695928e-06   0.00028492645  5.6501776e-06  1.9172804e-06  1.1449022e-06
     81200   4.5680806e-06  0.00028552413  5.9865642e-06  1.8910921e-06  1.1333517e-06
     81300   4.33586e-06    0.00028618171  6.3530861e-06  1.8448102e-06  1.123402e-06 
     81400   3.935376e-06   0.00028696612  6.7698433e-06  1.7842658e-06  1.1155119e-06
     81500   3.5017954e-06  0.00028779352  7.2126284e-06  1.7251332e-06  1.1201035e-06
     81600   3.2400117e-06  0.00028848277  7.640733e-06   1.6778164e-06  1.1414874e-06
     81700   3.1181459e-06  0.00028902991  8.0246586e-06  1.6340309e-06  1.1589072e-06
     81800   2.9547329e-06  0.00028957825  8.334809e-06   1.6046022e-06  1.1619505e-06
     81900   2.7822803e-06  0.00029013765  8.5296996e-06  1.5678636e-06  1.1667584e-06
     82000   2.7318852e-06  0.00029059975  8.6003751e-06  1.5386573e-06  1.1743297e-06
     82100   2.8419245e-06  0.00029091166  8.5675584e-06  1.5131514e-06  1.1802042e-06
     82200   2.9810379e-06  0.00029116718  8.4828615e-06  1.4901903e-06  1.1863545e-06
     82300   3.0203528e-06  0.0002914942   8.3970759e-06  1.4679634e-06  1.1965315e-06
     82400   2.9602284e-06  0.00029189249  8.3411822e-06  1.4454842e-06  1.2081195e-06
     82500   2.8809731e-06  0.0002923396   8.3170545e-06  1.4206748e-06  1.22482e-06  
     82600   2.8155442e-06  0.00029283936  8.295083e-06   1.3990396e-06  1.2497228e-06
     82700   2.7825807e-06  0.00029337475  8.2397945e-06  1.3832679e-06  1.2787786e-06
     82800   2.7706553e-06  0.00029391135  8.1200172e-06  1.3787346e-06  1.3065694e-06
     82900   2.7357867e-06  0.00029442048  7.9231905e-06  1.3841736e-06  1.3311731e-06
     83000   2.6620811e-06  0.00029492828  7.6582444e-06  1.3979861e-06  1.3542319e-06
[...]
    478600   9.290647e-07   8.8851048e-07  9.1990878e-08  1.156056e-08   2.6794567e-08
    478700   9.3360878e-07  8.9248249e-07  9.1673324e-08  1.145649e-08   2.6825366e-08
    478800   9.387462e-07   8.9430299e-07  9.017452e-08   1.1660446e-08  2.6477966e-08
    478900   9.4364154e-07  8.9364393e-07  8.940464e-08   1.123497e-08   2.6920854e-08
    479000   9.4868115e-07  8.9031693e-07  8.8493685e-08  1.1458298e-08  2.6485616e-08
    479100   9.533387e-07   8.8428264e-07  9.0213425e-08  1.1206074e-08  2.6999565e-08
    479200   9.5780354e-07  8.7556415e-07  8.9147073e-08  1.1305812e-08  2.6084406e-08
    479300   9.6160995e-07  8.6451626e-07  2.8379022e-07  1.3596377e-08  3.4836617e-08
    479400   9.6500879e-07  8.5141115e-07  2.5923223e-07  2.4154761e-08  3.216687e-08 
    479500   9.6817123e-07  8.3627962e-07  7.6469393e-08  1.0168441e-08  2.5753082e-08
    479600   9.7098608e-07  8.1981959e-07  7.6161532e-08  1.1551463e-08  2.5534287e-08
    479700   9.7339313e-07  8.0237873e-07  8.4950459e-08  1.167157e-08   2.6362559e-08
    479800   9.7589627e-07  7.8445813e-07  8.8777879e-08  1.2841897e-08  2.619713e-08 
    479900   9.7813962e-07  7.6658103e-07  9.1081369e-08  1.2355637e-08  2.6536848e-08
    480000   9.8058071e-07  7.4934554e-07  9.1965981e-08  1.2490744e-08  2.6274612e-08
    480100   9.8293212e-07  7.3336477e-07  9.3037482e-08  1.179045e-08   2.6262064e-08
    480200   9.8518363e-07  7.1920551e-07  9.4598288e-08  1.1333782e-08  2.6297554e-08
    480300   9.8764485e-07  7.0735885e-07  9.5905559e-08  1.1413668e-08  2.6202271e-08
    480400   9.8967957e-07  6.9820399e-07  9.7546874e-08  1.0611373e-08  2.6638176e-08
    480500   9.9193276e-07  6.9201985e-07  1.005683e-07   1.1046436e-08  2.6518589e-08
    480600   9.9379873e-07  6.8895602e-07  1.018169e-07   1.037421e-08   2.6875719e-08
    480700   9.9554435e-07  6.890114e-07   1.0373921e-07  1.0664092e-08  2.667848e-08 
    480800   9.9712362e-07  6.9205168e-07  1.0674004e-07  1.0485662e-08  2.6731781e-08
    480900   9.9823811e-07  6.978018e-07   1.1021803e-07  1.0612716e-08  2.6612207e-08
    481000   9.9939199e-07  7.0582335e-07  1.1384349e-07  1.0889718e-08  2.6592986e-08
    481100   1.0000407e-06  7.1553558e-07  1.1734418e-07  1.0797275e-08  2.6721936e-08
    481200   1.0008336e-06  7.2630677e-07  1.2010792e-07  1.1144541e-08  2.6711774e-08
    481300   1.0013532e-06  7.3743822e-07  1.2275201e-07  1.0888017e-08  2.696188e-08 
    481400   1.0019777e-06  7.4816231e-07  1.2465833e-07  1.1289457e-08  2.6768233e-08
    481500   1.0028358e-06  7.5771847e-07  1.2607753e-07  1.1129637e-08  2.6852118e-08
    481600   1.0038176e-06  7.6540124e-07  1.2627665e-07  1.1353828e-08  2.6586235e-08
    481700   1.0054446e-06  7.7059426e-07  1.253005e-07   1.1179046e-08  2.6441571e-08
    481800   1.0072641e-06  7.7282426e-07  1.2290189e-07  1.1052592e-08  2.6303127e-08
    481900   1.0098022e-06  7.7179915e-07  1.1944112e-07  1.1087935e-08  2.6054865e-08
    482000   1.0125315e-06  7.674194e-07   1.1501066e-07  1.0957759e-08  2.598631e-08 
    482100   1.0156769e-06  7.5977317e-07  1.0946361e-07  1.1101996e-08  2.5728114e-08
    482200   1.0189216e-06  7.4912267e-07  1.031183e-07   1.0809214e-08  2.559773e-08 
    482300   1.0221355e-06  7.3585542e-07  9.5765782e-08  1.0408231e-08  2.536979e-08 
    482400   1.0252926e-06  7.2047436e-07  1.1722101e-07  1.184336e-08   2.5425791e-08
    482500   1.0280581e-06  7.0360674e-07  1.1100378e-07  9.3315183e-09  2.5397513e-08
    482600   1.0306818e-06  6.8575379e-07  8.076306e-08   9.6730757e-09  2.4717998e-08
    482700   1.0331299e-06  6.6754475e-07  7.8315874e-08  9.7904826e-09  2.4604402e-08
    482800   1.0352982e-06  6.4956501e-07  7.6019429e-08  9.9644816e-09  2.4358034e-08
    482900   1.0375099e-06  6.3240302e-07  7.5334709e-08  9.8152852e-09  2.4414862e-08
    483000   1.0394265e-06  6.1660426e-07  1.2718482e-07  9.728388e-09   2.5546017e-08
    483100   1.0415069e-06  6.0261897e-07  7.4590366e-08  9.6600711e-09  2.4192189e-08
    483200   1.0435867e-06  5.908872e-07   6.9794513e-08  9.457166e-09   2.4177451e-08
    483300   1.0457036e-06  5.8171412e-07  6.9731266e-08  9.474333e-09   2.4123586e-08
    483400   1.047913e-06   5.7533735e-07  1.1765583e-07  1.080932e-08   2.4667123e-08
    483500   1.0502665e-06  5.7180365e-07  7.018377e-08   9.5307953e-09  2.4149927e-08
    483600   1.0527894e-06  5.7101372e-07  7.0477114e-08  9.4185312e-09  2.4216702e-08
    483700   1.0554579e-06  5.7271108e-07  7.1476086e-08  9.6199425e-09  2.4197537e-08
    483800   1.0585897e-06  5.7651474e-07  7.5833583e-08  9.6250175e-09  2.432051e-08 
    483900   1.0619996e-06  5.8192034e-07  7.1066398e-08  9.7213259e-09  2.4229441e-08
    484000   1.0659425e-06  5.8835297e-07  7.1040969e-08  9.6669087e-09  2.4269885e-08
    484100   1.0703633e-06  5.9517714e-07  7.1215664e-08  9.6326396e-09  2.4297248e-08
    484200   1.0753559e-06  6.0174055e-07  7.8361789e-08  9.5872967e-09  2.4333311e-08
    484300   1.0808785e-06  6.0741602e-07  7.1877923e-08  9.3277376e-09  2.430929e-08 
    484400   1.0868745e-06  6.1162689e-07  8.3416937e-08  1.0435497e-08  2.4293032e-08
    484500   1.0933797e-06  6.1386717e-07  6.7962142e-08  8.9627015e-09  2.4328776e-08
    484600   1.1001586e-06  6.1372139e-07  7.218069e-08   9.1378068e-09  2.4341914e-08
    484700   1.1072019e-06  6.1090406e-07  7.161941e-08   9.1892977e-09  2.4415189e-08
    484800   1.1144089e-06  6.0521695e-07  7.1885817e-08  9.1199827e-09  2.438076e-08 
    484900   1.1216273e-06  5.9660659e-07  6.8609187e-08  9.1225729e-09  2.4373346e-08
    485000   1.1288509e-06  5.851348e-07   7.1305518e-08  9.0533667e-09  2.4378459e-08
    485100   1.1359116e-06  5.7098842e-07  7.0131581e-08  8.9909196e-09  2.4400447e-08
    485200   1.1428298e-06  5.5446231e-07  7.1032138e-08  8.9621192e-09  2.4465059e-08
    485300   1.1495273e-06  5.3594975e-07  7.3119261e-08  8.9858851e-09  2.4463584e-08
    485400   1.155992e-06   5.1593133e-07  7.5974978e-08  9.0430879e-09  2.4536572e-08
    485500   1.1622433e-06  4.9495049e-07  7.9885236e-08  9.1524874e-09  2.4551613e-08
    485600   1.1682301e-06  4.736004e-07   8.4813534e-08  9.3339727e-09  2.4589903e-08
    485700   1.174041e-06   4.5250276e-07  9.0692226e-08  9.5503537e-09  2.4625982e-08
    485800   1.1795442e-06  4.3228378e-07  9.7453102e-08  9.8101421e-09  2.4649787e-08
    485900   1.1848412e-06  4.1354934e-07  1.0509267e-07  1.0126329e-08  2.4698628e-08
    486000   1.1898097e-06  3.9685046e-07  1.1359141e-07  1.0478531e-08  2.4728136e-08
    486100   1.1944595e-06  3.8266305e-07  1.2262052e-07  1.0786306e-08  2.4801114e-08
    486200   1.1987651e-06  3.7135713e-07  1.3211616e-07  1.1063526e-08  2.4826689e-08
    486300   1.2026263e-06  3.6318979e-07  1.420875e-07   1.1274349e-08  2.4896134e-08
    486400   1.2061036e-06  3.5828515e-07  1.5257492e-07  1.147578e-08   2.4927591e-08
    486500   1.2090326e-06  3.5663429e-07  1.63582e-07    1.1621202e-08  2.4977085e-08
    486600   1.211512e-06   3.5809064e-07  1.7509639e-07  1.1752411e-08  2.5036355e-08
    486700   1.2134088e-06  3.6237478e-07  1.8711851e-07  1.1916107e-08  2.5067295e-08
    486800   1.2148005e-06  3.6908434e-07  1.9966315e-07  1.2035507e-08  2.5135082e-08
    486900   1.2156349e-06  3.7770688e-07  2.1263731e-07  1.2253082e-08  2.5156105e-08
    487000   1.2159922e-06  3.8764147e-07  2.2600214e-07  1.2426737e-08  2.5215527e-08
    487100   1.21593e-06    3.9821902e-07  2.394886e-07   1.2663978e-08  2.5237719e-08
    487200   1.2155219e-06  4.0873813e-07  2.5278996e-07  1.2863914e-08  2.5280153e-08
    487300   1.2149021e-06  4.1850056e-07  2.6564242e-07  1.303447e-08   2.5286278e-08
    487400   1.2141402e-06  4.2685734e-07  2.777419e-07   1.319639e-08   2.5295396e-08
    487500   1.2133606e-06  4.332474e-07   2.8892579e-07  1.3324924e-08  2.5295366e-08
    487600   1.2125835e-06  4.3723052e-07  2.9899076e-07  1.3461477e-08  2.5261644e-08
    487700   1.2118904e-06  4.3850808e-07  3.077119e-07   1.359246e-08   2.5245189e-08
    487800   1.2112442e-06  4.3693314e-07  3.1493066e-07  1.3743551e-08  2.5184274e-08
    487900   1.2106714e-06  4.3250988e-07  3.2042053e-07  1.3861409e-08  2.5147294e-08
    488000   1.2101361e-06  4.2537504e-07  3.2395362e-07  1.399053e-08   2.5071647e-08
    488100   1.209643e-06   4.1578597e-07  3.2530543e-07  1.4070527e-08  2.5003184e-08
    488200   1.209223e-06   4.0409102e-07  3.2430436e-07  1.4127821e-08  2.4904057e-08
    488300   1.2088802e-06  3.9071245e-07  3.2084063e-07  1.412386e-08   2.4782917e-08
    488400   1.2087212e-06  3.7612894e-07  3.1477811e-07  1.4074555e-08  2.4645034e-08
    488500   1.2087501e-06  3.6086337e-07  3.0608446e-07  1.3968032e-08  2.4464412e-08
    488600   1.2090551e-06  3.4547194e-07  2.9472476e-07  1.3794563e-08  2.42694e-08  
    488700   1.2096251e-06  3.3053106e-07  2.8072966e-07  1.3572537e-08  2.4036771e-08
    488800   1.2104569e-06  3.1661695e-07  2.6421113e-07  1.3287686e-08  2.3789763e-08
    488900   1.211502e-06   3.0427951e-07  2.4541802e-07  1.2967677e-08  2.3513242e-08
    489000   1.2126701e-06  2.9401189e-07  2.2467926e-07  1.2619877e-08  2.3237752e-08
    489100   1.2138886e-06  2.8622068e-07  2.0235935e-07  1.2264916e-08  2.2953179e-08
    489200   1.2150327e-06  2.812014e-07   1.7880675e-07  1.1909191e-08  2.2667487e-08
    489300   1.2160288e-06  2.7911819e-07  1.543589e-07   1.1564816e-08  2.2399203e-08
    489400   1.2167741e-06  2.7999293e-07  1.2941984e-07  1.1225926e-08  2.2129983e-08
    489500   1.217212e-06   2.8370302e-07  1.0432682e-07  1.0892193e-08  2.1891153e-08
    489600   1.2172915e-06  2.8999109e-07  7.9448529e-08  1.0570813e-08  2.1654102e-08
    489700   1.2161182e-06  2.9850175e-07  4.6784534e-07  1.5158971e-08  2.3902458e-08
    489800   1.2068249e-06  3.096246e-07   2.0614417e-06  3.4755782e-08  3.5071891e-08
    489900   1.2112273e-06  3.2129521e-07  7.4250249e-07  1.2180238e-08  2.19656e-08  
    490000   1.2101708e-06  3.337325e-07   7.0098902e-08  9.770422e-09   2.1815141e-08
    490100   1.2072918e-06  3.4655596e-07  9.2050338e-08  1.0118826e-08  2.1940193e-08
    490200   1.2037593e-06  3.5884597e-07  1.1449528e-07  1.0367896e-08  2.2149201e-08
    490300   1.2001025e-06  3.7009081e-07  1.371343e-07   1.0385162e-08  2.2375692e-08
    490400   1.195514e-06   3.7985731e-07  1.5904932e-07  1.0820624e-08  2.2435209e-08
    490500   1.1907688e-06  3.8782409e-07  1.8064824e-07  1.0779671e-08  2.2612255e-08
    490600   1.1850704e-06  3.9380727e-07  2.0150676e-07  1.1185285e-08  2.2628571e-08
    490700   1.1789549e-06  3.9771203e-07  2.2229402e-07  1.1298773e-08  2.28804e-08  
    490800   1.1721181e-06  3.995161e-07   2.429224e-07   1.1516348e-08  2.2944448e-08
    490900   1.1647921e-06  3.9924059e-07  2.6298839e-07  1.1830882e-08  2.3417293e-08
    491000   1.1571812e-06  3.9698604e-07  2.8244697e-07  1.1908901e-08  2.3685298e-08
    491100   1.1492738e-06  3.9294743e-07  2.9841327e-07  1.2325118e-08  2.4109536e-08
    491200   1.1414454e-06  3.8744322e-07  3.1169373e-07  1.2445406e-08  2.4388403e-08
    491300   1.1336116e-06  3.808565e-07   3.2218395e-07  1.2679513e-08  2.4646376e-08
    491400   1.1261229e-06  3.7358167e-07  3.2922438e-07  1.2789535e-08  2.4936946e-08
    491500   1.1190306e-06  3.6605056e-07  3.3254379e-07  1.273824e-08   2.4863991e-08
    491600   1.1124573e-06  3.5875809e-07  3.3184944e-07  1.2686e-08     2.4934197e-08
    491700   1.1064169e-06  3.5223501e-07  3.2739452e-07  1.2522372e-08  2.4571063e-08
    491800   1.1008563e-06  3.4700266e-07  3.182131e-07   1.2362666e-08  2.4276645e-08
    491900   1.0957722e-06  3.435149e-07   3.0580709e-07  1.2185247e-08  2.3721243e-08
    492000   1.091017e-06   3.421342e-07   2.9132259e-07  1.2016507e-08  2.3267207e-08
    492100   1.0866394e-06  3.4310507e-07  2.7549945e-07  1.1848508e-08  2.3000401e-08
    492200   1.0824442e-06  3.465698e-07   2.5885292e-07  1.1701356e-08  2.2683974e-08
    492300   1.0784104e-06  3.5256305e-07  2.4104273e-07  1.1523753e-08  2.2767624e-08
    492400   1.0743941e-06  3.6099922e-07  2.2249921e-07  1.139626e-08   2.2600241e-08
    492500   1.0702809e-06  3.7166052e-07  2.025247e-07   1.1214871e-08  2.2745603e-08
    492600   1.066097e-06   3.8418217e-07  1.8138006e-07  1.1071991e-08  2.2596202e-08
    492700   1.0617072e-06  3.9808299e-07  1.5879543e-07  1.0881879e-08  2.2341759e-08
    492800   1.057252e-06   4.1282658e-07  1.3470244e-07  1.0701332e-08  2.2069588e-08
    492900   1.052552e-06   4.2785248e-07  1.0998301e-07  1.0484975e-08  2.1349461e-08
    493000   1.0477273e-06  4.4257854e-07  8.4517926e-08  1.0281752e-08  2.0956657e-08
    493100   1.0422946e-06  4.5646318e-07  2.6942739e-07  1.1119088e-08  2.1798655e-08
    493200   1.034201e-06   4.6895652e-07  7.9026732e-07  1.7541985e-08  2.7637075e-08
    493300   1.0255142e-06  4.8020791e-07  1.1812378e-06  1.8065201e-08  2.9301536e-08
    493400   1.0219246e-06  4.8908184e-07  2.3707613e-07  1.0835088e-08  2.2756891e-08
    493500   1.0153034e-06  4.9569349e-07  6.398304e-08   9.6326381e-09  2.1617795e-08
    493600   1.0084683e-06  5.0021502e-07  7.8242986e-08  9.7363725e-09  2.1703191e-08
    493700   1.0014122e-06  5.0245288e-07  9.435209e-08   9.9628583e-09  2.1870018e-08
    493800   9.9401282e-07  5.0244751e-07  1.0740868e-07  9.972926e-09   2.1614375e-08
    493900   9.8648993e-07  5.0038823e-07  1.231451e-07   1.0225686e-08  2.1971942e-08
    494000   9.7884202e-07  4.9663262e-07  1.3891357e-07  1.0263138e-08  2.230674e-08 
    494100   9.7096853e-07  4.9158947e-07  1.5377474e-07  1.0550687e-08  2.2784927e-08
    494200   9.6334059e-07  4.8553433e-07  1.6755195e-07  1.0712288e-08  2.3590059e-08
    494300   9.5588659e-07  4.7901653e-07  1.7964498e-07  1.0804974e-08  2.4156564e-08
    494400   9.4861207e-07  4.7242913e-07  1.8888881e-07  1.1045011e-08  2.4798778e-08
    494500   9.4202788e-07  4.6619329e-07  1.9567968e-07  1.1016637e-08  2.5468095e-08
    494600   9.3581961e-07  4.6072188e-07  1.9993174e-07  1.1169143e-08  2.5911508e-08
    494700   9.3044178e-07  4.5639995e-07  2.0105124e-07  1.1084414e-08  2.6539878e-08
    494800   9.2570904e-07  4.5355808e-07  1.9680171e-07  1.1111842e-08  2.6445652e-08
    494900   9.2156502e-07  4.5249457e-07  1.8510732e-07  1.1044692e-08  2.5664053e-08
    495000   9.180405e-07   4.5358998e-07  1.6907865e-07  1.0937545e-08  2.4321242e-08
    495100   9.1453267e-07  4.5705457e-07  1.5114401e-07  1.0887232e-08  2.309856e-08 
    495200   9.1136339e-07  4.6294913e-07  1.3202782e-07  1.0745459e-08  2.1922545e-08
    495300   9.0799832e-07  4.7117861e-07  1.1146895e-07  1.0665026e-08  2.0902713e-08
    495400   9.0468265e-07  4.8145873e-07  9.0006391e-08  1.0492989e-08  1.9968219e-08
    495500   9.0125157e-07  4.933451e-07   8.2639255e-08  1.0470182e-08  2.0353947e-08
    495600   8.9713686e-07  5.0634389e-07  3.0293773e-07  1.2095733e-08  3.3208199e-08
    495700   8.9317282e-07  5.197889e-07   8.8112615e-08  1.056442e-08   1.9711281e-08
    495800   8.8659639e-07  5.3364966e-07  8.0764749e-07  1.3726698e-08  3.4117155e-08
    495900   8.8248421e-07  5.4678132e-07  1.2894301e-06  1.7660864e-08  7.2614099e-08
    496000   8.8103095e-07  5.5888065e-07  3.620873e-08   9.7673385e-09  2.008927e-08 
    496100   8.7661289e-07  5.6953289e-07  5.3385589e-08  9.9752736e-09  2.0730457e-08
    496200   8.7322134e-07  5.780012e-07   6.8957338e-08  9.7928424e-09  2.172638e-08 
    496300   8.6970394e-07  5.8388601e-07  8.2588389e-08  1.0114892e-08  2.2199037e-08
    496400   8.6655893e-07  5.8697394e-07  9.4263416e-08  9.965709e-09   2.2756846e-08
    496500   8.6367525e-07  5.8727153e-07  1.0318687e-07  1.0096719e-08  2.2969916e-08
    496600   8.6083884e-07  5.8487869e-07  1.0934574e-07  1.0151837e-08  2.3015166e-08
    496700   8.584169e-07   5.7989131e-07  1.1271123e-07  1.0071922e-08  2.2810472e-08
    496800   8.5605348e-07  5.7249412e-07  1.128732e-07   1.0221264e-08  2.2423645e-08
    496900   8.5433417e-07  5.6301682e-07  1.1098751e-07  1.0045378e-08  2.2100449e-08
    497000   8.5286293e-07  5.5187261e-07  1.0776316e-07  1.0101682e-08  2.1688981e-08
    497100   8.5192816e-07  5.3956118e-07  1.0369242e-07  9.9978935e-09  2.1583877e-08
    497200   8.513777e-07   5.2671923e-07  9.893021e-08   9.9034376e-09  2.1486829e-08
    497300   8.5091033e-07  5.1406464e-07  9.3182105e-08  9.8729747e-09  2.1464863e-08
    497400   8.5061646e-07  5.02313e-07    8.5734879e-08  9.7236401e-09  2.1321224e-08
    497500   8.500162e-07   4.9216285e-07  7.5644021e-08  9.7083022e-09  2.0863126e-08
    497600   8.4911905e-07  4.8426907e-07  6.5246253e-08  9.5994925e-09  2.0320863e-08
    497700   8.4762235e-07  4.7912819e-07  5.5095312e-08  9.5905179e-09  1.9913671e-08
    497800   8.4550096e-07  4.7709378e-07  4.5503409e-08  9.5082368e-09  1.9519373e-08
    497900   8.4267602e-07  4.7831749e-07  3.5895013e-08  9.4890861e-09  1.922346e-08 
    498000   8.3902871e-07  4.8273708e-07  1.4529147e-07  9.4648142e-09  2.2903551e-08
    498100   8.3403673e-07  4.9012912e-07  5.312736e-07   1.0689758e-08  3.5268911e-08
    498200   8.2911988e-07  5.0030496e-07  3.4591758e-07  9.9583249e-09  3.9934681e-08
    498300   8.246117e-07   5.1230436e-07  4.1346457e-08  9.1734761e-09  1.9671053e-08
    498400   8.19807e-07    5.2583087e-07  2.9525987e-08  9.1402623e-09  1.9781805e-08
    498500   8.1513649e-07  5.4021827e-07  3.3140162e-08  9.0695162e-09  1.9976263e-08
    498600   8.1047185e-07  5.5499266e-07  3.6231411e-08  9.1020623e-09  2.0408023e-08
    498700   8.0558066e-07  5.6967174e-07  3.9935389e-08  8.9989429e-09  2.0560029e-08
    498800   8.0058011e-07  5.8375981e-07  4.3116811e-08  9.0611015e-09  2.0347369e-08
    498900   7.9524513e-07  5.9683759e-07  4.5620191e-08  8.965436e-09   2.0151653e-08
    499000   7.8955956e-07  6.0848867e-07  4.7181162e-08  9.028423e-09   1.9868741e-08
    499100   7.8360441e-07  6.1834392e-07  4.7613192e-08  8.9470648e-09  1.9595059e-08
    499200   7.7722397e-07  6.2613668e-07  4.7143669e-08  8.9683802e-09  1.9270564e-08
    499300   7.7065717e-07  6.3162042e-07  4.7261196e-08  8.9429375e-09  1.9085877e-08
    499400   7.6397241e-07  6.3457602e-07  4.7863621e-08  8.899909e-09   1.8975919e-08
    499500   7.5736368e-07  6.3491503e-07  5.6492478e-08  8.9278353e-09  1.9263697e-08
    499600   7.5105323e-07  6.3264868e-07  4.9148753e-08  8.8298425e-09  1.8661325e-08
    499700   7.4518032e-07  6.2792457e-07  4.8053497e-08  8.9294958e-09  1.8362663e-08
    499800   7.3976212e-07  6.211105e-07   4.7742699e-08  8.7966045e-09  1.8598524e-08
    499900   7.3475012e-07  6.1275333e-07  4.5324278e-08  8.8795397e-09  1.8250223e-08
    500000   7.3004779e-07  6.0350918e-07  4.4024972e-08  8.7745711e-09  1.8230445e-08
Loop time of 74.5608 on 1 procs for 300000 steps with 680 atoms

Performance: 34763576.941 tau/day, 4023.562 timesteps/s, 2.736 Matom-step/s
99.7% CPU use with 1 MPI tasks x no OpenMP threads

MPI task timing breakdown:
Section |  min time  |  avg time  |  max time  |%varavg| %total
---------------------------------------------------------------
Pair    | 2.7977     | 2.7977     | 2.7977     |   0.0 |  3.75
Bond    | 61.814     | 61.814     | 61.814     |   0.0 | 82.90
Neigh   | 0.92657    | 0.92657    | 0.92657    |   0.0 |  1.24
Comm    | 0.099415   | 0.099415   | 0.099415   |   0.0 |  0.13
Output  | 0.72584    | 0.72584    | 0.72584    |   0.0 |  0.97
Modify  | 7.8218     | 7.8218     | 7.8218     |   0.0 | 10.49
Other   |            | 0.3753     |            |       |  0.50

Nlocal:            680 ave         680 max         680 min
Histogram: 1 0 0 0 0 0 0 0 0 0
Nghost:              0 ave           0 max           0 min
Histogram: 1 0 0 0 0 0 0 0 0 0
Neighs:           1942 ave        1942 max        1942 min
Histogram: 1 0 0 0 0 0 0 0 0 0

Total # of neighbors = 1942
Ave neighs/atom = 2.8558824
Ave special neighs/atom = 5.9647059
Neighbor list builds = 3637
Dangerous builds = 0
Total wall time: 0:02:04
